File Format: MDS
; @(#) $Source: /cvs/sr/src/gemini/lib_netlist/slib-sml/source/CDMA_rf.dat,v $ $Revision: 1.1 $ $Date: 1997/12/17 12:01:44 $
Title: Equation data
Date: Tuesday, 4 November 1997 21:45:20 GMT
Plotname: XX x[0]
Flags: complex
No. Sweep Variables: 0
Sweep Variables:
No. Variables: 2
Variables:         0  IVAR  unknown type=real indep=yes
        1  _NMDEQN  unknown type=complex indep=no
Values:
0    0,0
    -.632208E-02,0
1    .20345052E-06,0
    -.854198E-02,0
2    .40690104E-06,0
    -.893808E-02,-.632208E-02
3    .61035156E-06,0
    -.418343E-02,-.854198E-02
4    .81380208E-06,0
    -.92145E-03,-.893808E-02
5    .10172526E-05,0
    .769264E-02,-.418343E-02
6    .122070312E-05,0
    .1381245E-01,-.92145E-03
7    .142415365E-05,0
    .1629032E-01,.769264E-02
8    .162760417E-05,0
    .834634E-02,.1381245E-01
9    .183105469E-05,0
    .219312E-02,.1629032E-01
10    .203450521E-05,0
    -.136662E-02,.834634E-02
11    .223795573E-05,0
    .349565E-02,.219312E-02
12    .244140625E-05,0
    .1031497E-01,-.136662E-02
13    .264485677E-05,0
    .232853E-01,.349565E-02
14    .284830729E-05,0
    .3035071E-01,.1031497E-01
15    .305175781E-05,0
    .2712774E-01,.232853E-01
16    .325520833E-05,0
    .710506E-02,.3035071E-01
17    .345865885E-05,0
    -.1258395E-01,.2712774E-01
18    .366210937E-05,0
    -.2260656E-01,.710506E-02
19    .38655599E-05,0
    -.800054E-02,-.1258395E-01
20    .406901042E-05,0
    .3075553E-01,-.2260656E-01
21    .427246094E-05,0
    .9776283E-01,-.800054E-02
22    .447591146E-05,0
    .17386235,.3075553E-01
23    .467936198E-05,0
    .24199946,.9776283E-01
24    .48828125E-05,0
    .28075553,.17386235
25    .508626302E-05,0
    .29423174,.24199946
26    .528971354E-05,0
    .28420913,.28075553
27    .549316406E-05,0
    .26564994,.29423174
28    .569661458E-05,0
    .24562725,.28420913
29    .59000651E-05,0
    .24127447,.26564994
30    .610351562E-05,0
    .24833988,.24562725
31    .630696615E-05,0
    .26244002,.24127447
32    .651041667E-05,0
    .26925934,.24833988
33    .671386719E-05,0
    .27299179,.26244002
34    .691731771E-05,0
    .26943206,.26925934
35    .712076823E-05,0
    .26440865,.27299179
36    .732421875E-05,0
    .26910883,.26943206
37    .752766927E-05,0
    .27489669,.26440865
38    .773111979E-05,0
    .2818087,.26910883
39    .793457031E-05,0
    .28204329,.27489669
40    .813802083E-05,0
    .27878132,.2818087
41    .834147135E-05,0
    .26517798,.28204329
42    .854492187E-05,0
    .25254225,.27878132
43    .87483724E-05,0
    .24649644,.26517798
44    .895182292E-05,0
    .24341816,.25254225
45    .915527344E-05,0
    .25015497,.24649644
46    .935872396E-05,0
    .25648225,.24341816
47    .956217448E-05,0
    .25739683,.25015497
48    .9765625E-05,0
    .25028215,.25648225
49    .996907552E-05,0
    .24043985,.25739683
50    .10172526E-04,0
    .23854866,.25028215
51    .103759766E-04,0
    .25108015,.24043985
52    .105794271E-04,0
    .28788172,.23854866
53    .107828776E-04,0
    .31826329,.25108015
54    .109863281E-04,0
    .33198123,.28788172
55    .111897786E-04,0
    .30411423,.31826329
56    .113932292E-04,0
    .22107261,.33198123
57    .115966797E-04,0
    .9020088E-01,.30411423
58    .118001302E-04,0
    -.6089917E-01,.22107261
59    .120035807E-04,0
    -.19793593,.9020088E-01
60    .122070312E-04,0
    -.29308154,-.6089917E-01
61    .124104818E-04,0
    -.33100717,-.19793593
62    .126139323E-04,0
    -.31164807,-.29308154
63    .128173828E-04,0
    -.24895664,-.33100717
64    .130208333E-04,0
    -.16092571,-.31164807
65    .132242839E-04,0
    -.5758246E-01,-.24895664
66    .134277344E-04,0
    .5923547E-01,-.14828155
67    .136311849E-04,0
    .18460969,-.404985E-01
68    .138346354E-04,0
    .30216721,.7711163E-01
69    .140380859E-04,0
    .38584358,.19297654
70    .142415365E-04,0
    .40709387,.30401011
71    .14444987E-04,0
    .34549412,.37045831
72    .146484375E-04,0
    .21642335,.37946897
73    .14851888E-04,0
    .3493906E-01,.31291349
74    .150553385E-04,0
    -.13462181,.17444235
75    .152587891E-04,0
    -.241351,-.361511E-02
76    .154622396E-04,0
    -.25340442,-.1676409
77    .156656901E-04,0
    -.16892481,-.26507601
78    .158691406E-04,0
    -.1603967E-01,-.25243185
79    .160725911E-04,0
    .15516971,-.15055693
80    .162760417E-04,0
    .3045395,.1426105E-01
81    .164794922E-04,0
    .37799782,.18280921
82    .166829427E-04,0
    .37621272,.30211223
83    .168863932E-04,0
    .3149739,.34699972
84    .170898437E-04,0
    .23176331,.32495724
85    .172932943E-04,0
    .16849705,.26306263
86    .174967448E-04,0
    .15546522,.17444096
87    .177001953E-04,0
    .20161708,.8811067E-01
88    .179036458E-04,0
    .28807147,-.1014036E-01
89    .181070964E-04,0
    .36933559,-.12269222
90    .183105469E-04,0
    .39127199,-.2528939
91    .185139974E-04,0
    .31748467,-.35383244
92    .187174479E-04,0
    .15123245,-.39444183
93    .189208984E-04,0
    -.5822403E-01,-.34034572
94    .19124349E-04,0
    -.23235947,-.1915161
95    .193277995E-04,0
    -.3006686,.1083935E-01
96    .1953125E-04,0
    -.22228701,.19611542
97    .197347005E-04,0
    -.4579933E-01,.29132917
98    .19938151E-04,0
    .15872977,.26945743
99    .201416016E-04,0
    .29504676,.12837163
100    .203450521E-04,0
    .30003607,-.5679836E-01
101    .205485026E-04,0
    .17101503,-.20375143
102    .207519531E-04,0
    -.3471914E-01,-.25972111
103    .209554036E-04,0
    -.23041342,-.1868584
104    .211588542E-04,0
    -.33208299,-.2575479E-01
105    .213623047E-04,0
    -.33808859,.16203371
106    .215657552E-04,0
    -.2755428,.32176198
107    .217692057E-04,0
    -.21521797,.3904798
108    .219726562E-04,0
    -.19933001,.37012779
109    .221761068E-04,0
    -.25230413,.28379417
110    .223795573E-04,0
    -.31997008,.19081582
111    .225830078E-04,0
    -.34091719,.12299598
112    .227864583E-04,0
    -.27205437,.12299598
113    .229899089E-04,0
    -.11624987,.19081582
114    .231933594E-04,0
    .7535348E-01,.29643832
115    .233968099E-04,0
    .22476958,.38721175
116    .236002604E-04,0
    .26634959,.40835596
117    .238037109E-04,0
    .18219899,.33012883
118    .240071615E-04,0
    .916254E-02,.16387661
119    .24210612E-04,0
    -.18207214,-.4114006E-01
120    .244140625E-04,0
    -.32204157,-.21448331
121    .24617513E-04,0
    -.37394568,-.29230174
122    .248209635E-04,0
    -.34530473,-.24573242
123    .250244141E-04,0
    -.27646082,-.9535254E-01
124    .252278646E-04,0
    -.20301798,.9535254E-01
125    .254313151E-04,0
    -.1770052,.24573242
126    .256347656E-04,0
    -.1963643,.27965759
127    .258382161E-04,0
    -.24714289,.19739934
128    .260416667E-04,0
    -.30082689,.232639E-01
129    .262451172E-04,0
    -.33153747,-.17224346
130    .264485677E-04,0
    -.32510411,-.30668341
131    .266520182E-04,0
    -.27721181,-.35880275
132    .268554687E-04,0
    -.19092638,-.32383452
133    .270589193E-04,0
    -.7716905E-01,-.24712399
134    .272623698E-04,0
    .4786734E-01,-.1830815
135    .274658203E-04,0
    .1677897,-.16646426
136    .276692708E-04,0
    .26617912,-.19885518
137    .278727214E-04,0
    .32413005,-.25735264
138    .280761719E-04,0
    .32492225,-.29839248
139    .282796224E-04,0
    .26190181,-.31694439
140    .284830729E-04,0
    .15698844,-.296687
141    .286865234E-04,0
    .153981E-01,-.24890848
142    .28889974E-04,0
    -.12267012,-.1723908
143    .290934245E-04,0
    -.23187386,-.8816809E-01
144    .29296875E-04,0
    -.30839154,.175092E-01
145    .295003255E-04,0
    -.33118904,.14220037
146    .29703776E-04,0
    -.31905549,.27011638
147    .299072266E-04,0
    -.28360441,.36631441
148    .301106771E-04,0
    -.25292305,.3883569
149    .303141276E-04,0
    -.22316339,.30916598
150    .305175781E-04,0
    -.21281495,.15056861
151    .307210286E-04,0
    -.21770152,-.5634042E-01
152    .309244792E-04,0
    -.22806,-.22858467
153    .311279297E-04,0
    -.23501204,-.30213043
154    .313313802E-04,0
    -.23501204,-.26109058
155    .315348307E-04,0
    -.22806,-.11049547
156    .317382812E-04,0
    -.21770152,.7388233E-01
157    .319417318E-04,0
    -.21281495,.21639559
158    .321451823E-04,0
    -.22316339,.25972111
159    .323486328E-04,0
    -.25292305,.1868584
160    .325520833E-04,0
    -.29624857,.2575479E-01
161    .327555339E-04,0
    -.33613946,-.16203371
162    .329589844E-04,0
    -.3490652,-.32176198
163    .331624349E-04,0
    -.31675839,-.3904798
164    .333658854E-04,0
    -.22107261,-.37012779
165    .335693359E-04,0
    -.9020088E-01,-.28379417
166    .337727865E-04,0
    .6089917E-01,-.19081582
167    .33976237E-04,0
    .19793593,-.12299598
168    .341796875E-04,0
    .29308154,-.12299598
169    .34383138E-04,0
    .33100717,-.19081582
170    .345865885E-04,0
    .31164807,-.29643832
171    .347900391E-04,0
    .24895664,-.38721175
172    .349934896E-04,0
    .14828155,-.40835596
173    .351969401E-04,0
    .404985E-01,-.33012883
174    .354003906E-04,0
    -.7711163E-01,-.16387661
175    .356038411E-04,0
    -.19297654,.4114006E-01
176    .358072917E-04,0
    -.30401011,.21448331
177    .360107422E-04,0
    -.37045831,.29230174
178    .362141927E-04,0
    -.37946897,.23308827
179    .364176432E-04,0
    -.31291349,.7826857E-01
180    .366210937E-04,0
    -.18708651,-.1132287
181    .368245443E-04,0
    -.1346885E-01,-.25409928
182    .370279948E-04,0
    .14976474,-.26885633
183    .372314453E-04,0
    .25670916,-.1649301
184    .374348958E-04,0
    .27587726,.2223717E-01
185    .376383464E-04,0
    .20011014,.21319094
186    .378417969E-04,0
    .4911618E-01,.32521899
187    .380452474E-04,0
    -.13349487,.34780371
188    .382486979E-04,0
    -.29437791,.29347638
189    .384521484E-04,0
    -.390468,.22153466
190    .38655599E-04,0
    -.40081644,.17437461
191    .388590495E-04,0
    -.32959944,.19156466
192    .390625E-04,0
    -.18903928,.24441368
193    .392659505E-04,0
    -.3492727E-01,.29624996
194    .39469401E-04,0
    .10393315,.31541807
195    .396728516E-04,0
    .19554572,.29475908
196    .398763021E-04,0
    .22989265,.25414969
197    .400797526E-04,0
    .22282559,.22796625
198    .402832031E-04,0
    .20721647,.24007024
199    .404866536E-04,0
    .21445813,.28247735
200    .406901042E-04,0
    .24339399,.31744557
201    .408935547E-04,0
    .29697801,.29962966
202    .410970052E-04,0
    .33036185,.21712821
203    .413004557E-04,0
    .31150803,.6442153E-01
204    .415039062E-04,0
    .2252226,-.10149544
205    .417073568E-04,0
    .8242679E-01,-.22159216
206    .419108073E-04,0
    -.8242679E-01,-.24787495
207    .421142578E-04,0
    -.2252226,-.16788325
208    .423177083E-04,0
    -.31150803,-.976981E-02
209    .425211589E-04,0
    -.33036185,.17119855
210    .427246094E-04,0
    -.29697801,.31615729
211    .429280599E-04,0
    -.24339399,.38562367
212    .431315104E-04,0
    -.20181397,.37070065
213    .433349609E-04,0
    -.1901325,.28680906
214    .435384115E-04,0
    -.20494943,.16213685
215    .43741862E-04,0
    -.2215258,.2805014E-01
216    .439453125E-04,0
    -.20634698,-.9065898E-01
217    .44148763E-04,0
    -.13640239,-.18260055
218    .443522135E-04,0
    -.105738E-01,-.23382991
219    .445556641E-04,0
    .14809179,-.26500996
220    .447591146E-04,0
    .31106386,-.27065112
221    .449625651E-04,0
    .41181548,-.2617223
222    .451660156E-04,0
    .42082614,-.23697416
223    .453694661E-04,0
    .31996724,-.2252395
224    .455729167E-04,0
    .14220176,-.2244473
225    .457763672E-04,0
    -.7421658E-01,-.24125147
226    .459798177E-04,0
    -.24566863,-.2598794
227    .461832682E-04,0
    -.31477459,-.2860364
228    .463867187E-04,0
    -.26109058,-.29263486
229    .465901693E-04,0
    -.11049547,-.26641055
230    .467936198E-04,0
    .7388233E-01,-.19929323
231    .469970703E-04,0
    .21639559,-.9504522E-01
232    .472005208E-04,0
    .25972111,.3078337E-01
233    .474039714E-04,0
    .1868584,.15514554
234    .476074219E-04,0
    .2575479E-01,.25353496
235    .478108724E-04,0
    -.16203371,.30704608
236    .480143229E-04,0
    -.32176198,.30704608
237    .482177734E-04,0
    -.3904798,.25353496
238    .48421224E-04,0
    -.37012779,.1677897
239    .486246745E-04,0
    -.28379417,.4786734E-01
240    .48828125E-04,0
    -.17817166,-.7716905E-01
241    .490315755E-04,0
    -.10591201,-.19092638
242    .49235026E-04,0
    -.10511982,-.28985596
243    .494384766E-04,0
    -.18244897,-.34218807
244    .496419271E-04,0
    -.30723958,-.34941363
245    .498453776E-04,0
    -.419681,-.30919374
246    .500488281E-04,0
    -.45385703,-.23634163
247    .502522786E-04,0
    -.37107632,-.16389506
248    .504557292E-04,0
    -.18241218,-.13150413
249    .506591797E-04,0
    .521391E-01,-.16207049
250    .508626302E-04,0
    .24484144,-.25792524
251    .510660807E-04,0
    .31789107,-.35630377
252    .512695312E-04,0
    .229151,-.40430382
253    .514729818E-04,0
    .3608421E-01,-.3476309
254    .516764323E-04,0
    -.17666335,-.17813488
255    .518798828E-04,0
    -.30136345,.5134691E-01
256    .520833333E-04,0
    -.2624365,.24563364
257    .522867839E-04,0
    -.9319158E-01,.31361377
258    .524902344E-04,0
    .12815171,.2309939
259    .526936849E-04,0
    .28344751,.2069893E-01
260    .528971354E-04,0
    .29056219,-.20428826
261    .531005859E-04,0
    .14419411,-.33394408
262    .533040365E-04,0
    -.8158527E-01,-.29177333
263    .53507487E-04,0
    -.27009849,-.11466179
264    .537109375E-04,0
    -.32378249,.11300878
265    .53914388E-04,0
    -.21675844,.26808935
266    .541178385E-04,0
    -.39048E-02,.25544519
267    .543212891E-04,0
    .21636836,.9592481E-01
268    .545247396E-04,0
    .3563378,-.13253795
269    .547281901E-04,0
    .37920342,-.30014019
270    .549316406E-04,0
    .31074527,-.31049867
271    .551350911E-04,0
    .21902792,-.15473505
272    .553385417E-04,0
    .15768906,.8407616E-01
273    .555419922E-04,0
    .1707734,.28030824
274    .557454427E-04,0
    .22430853,.33399225
275    .559488932E-04,0
    .26565071,.21924933
276    .561523437E-04,0
    .25600136,-.663614E-02
277    .563557943E-04,0
    .15680306,-.23630484
278    .565592448E-04,0
    -.251545E-02,-.38567463
279    .567626953E-04,0
    -.17618786,-.40067362
280    .569661458E-04,0
    -.31116799,-.3258882
281    .571695964E-04,0
    -.37333841,-.23438608
282    .573730469E-04,0
    -.35962047,-.19280606
283    .575764974E-04,0
    -.29493547,-.21904269
284    .577799479E-04,0
    -.2061954,-.27526121
285    .579833984E-04,0
    -.15086323,-.2956924
286    .58186849E-04,0
    -.14453596,-.24271753
287    .583902995E-04,0
    -.19221672,-.9477967E-01
288    .5859375E-04,0
    -.28482767,.9049641E-01
289    .587972005E-04,0
    -.36318089,.24012774
290    .59000651E-04,0
    -.39102964,.28882244
291    .592041016E-04,0
    -.33468573,.21338431
292    .594075521E-04,0
    -.18207214,.4223906E-01
293    .596110026E-04,0
    .916254E-02,-.1603973
294    .598144531E-04,0
    .18219899,-.3371683
295    .600179036E-04,0
    .26634959,-.42058379
296    .602213542E-04,0
    .22476958,-.40566078
297    .604248047E-04,0
    .7535348E-01,-.30782006
298    .606282552E-04,0
    -.11624987,-.16397975
299    .608317057E-04,0
    -.27205437,-.1266487E-01
300    .610351562E-04,0
    -.32827304,.11828388
301    .612386068E-04,0
    -.30288612,.21518119
302    .614420573E-04,0
    -.23442797,.27581091
303    .616455078E-04,0
    -.19096316,.30356413
304    .618489583E-04,0
    -.21337507,.30367021
305    .620524089E-04,0
    -.29092808,.28544731
306    .622558594E-04,0
    -.3657135,.24864574
307    .624593099E-04,0
    -.36466362,.22395558
308    .626627604E-04,0
    -.25975026,.21202275
309    .628662109E-04,0
    -.5618935E-01,.22197882
310    .630696615E-04,0
    .1558721,.23886126
311    .63273112E-04,0
    .28467791,.26748129
312    .634765625E-04,0
    .27257392,.28051311
313    .63680013E-04,0
    .12754444,.26900749
314    .638834635E-04,0
    -.7887584E-01,.23623709
315    .640869141E-04,0
    -.24396185,.20181591
316    .642903646E-04,0
    -.29818603,.19280525
317    .644938151E-04,0
    -.20280532,.22733372
318    .646972656E-04,0
    -.1574414E-01,.30018583
319    .649007161E-04,0
    .17422484,.37832382
320    .651041667E-04,0
    .2892477,.41249985
321    .653076172E-04,0
    .2594009,.36402256
322    .655110677E-04,0
    .10018848,.22729693
323    .657145182E-04,0
    -.13330511,.3554633E-01
324    .659179687E-04,0
    -.35648514,-.14893755
325    .661214193E-04,0
    -.49063541,-.25982564
326    .663248698E-04,0
    -.49063541,-.24393769
327    .665283203E-04,0
    -.35648514,-.12569888
328    .667317708E-04,0
    -.14594927,.5366484E-01
329    .669352214E-04,0
    .8310451E-01,.21846273
330    .671386719E-04,0
    .24152474,.32238162
331    .673421224E-04,0
    .28088085,.33096912
332    .675455729E-04,0
    .1850261,.28266227
333    .677490234E-04,0
    .167251E-01,.22491934
334    .67952474E-04,0
    -.15730425,.21128071
335    .681559245E-04,0
    -.25723854,.23335844
336    .68359375E-04,0
    -.22542627,.27465394
337    .685628255E-04,0
    -.8987488E-01,.28481881
338    .68766276E-04,0
    .971863E-01,.22418909
339    .689697266E-04,0
    .24698459,.8937369E-01
340    .691731771E-04,0
    .27597101,-.8297664E-01
341    .693766276E-04,0
    .18097249,-.23814635
342    .695800781E-04,0
    -.1063086E-01,-.31890231
343    .697835286E-04,0
    -.22085294,-.32987013
344    .699869792E-04,0
    -.37292635,-.28376126
345    .701904297E-04,0
    -.42206673,-.22839865
346    .703938802E-04,0
    -.36921771,-.20424124
347    .705973307E-04,0
    -.251051,-.2211306
348    .708007812E-04,0
    -.11432537,-.25620491
349    .710042318E-04,0
    .77358E-02,-.27343707
350    .712076823E-04,0
    .10519463,-.25102517
351    .714111328E-04,0
    .18708512,-.1997048
352    .716145833E-04,0
    .26306263,-.15830322
353    .718180339E-04,0
    .32495724,-.16785065
354    .720214844E-04,0
    .34699972,-.22805861
355    .722249349E-04,0
    .30211223,-.32673782
356    .724283854E-04,0
    .18280921,-.39251258
357    .726318359E-04,0
    .1426105E-01,-.37044379
358    .728352865E-04,0
    -.15055693,-.24252778
359    .73038737E-04,0
    -.25243185,-.4370737E-01
360    .732421875E-04,0
    -.25243185,.14978717
361    .73445638E-04,0
    -.15055693,.25349817
362    .736490885E-04,0
    .1426105E-01,.21898228
363    .738525391E-04,0
    .18280921,.649594E-01
364    .740559896E-04,0
    .31475639,-.12922125
365    .742594401E-04,0
    .36408369,-.26312996
366    .744628906E-04,0
    .3428334,-.27901792
367    .746663411E-04,0
    .27142948,-.15245991
368    .748697917E-04,0
    .17628386,.468409E-01
369    .750732422E-04,0
    .7272539E-01,.22781648
370    .752766927E-04,0
    -.3776526E-01,.29513912
371    .754801432E-04,0
    -.15527286,.2313179
372    .756835937E-04,0
    -.28223074,.5195418E-01
373    .758870443E-04,0
    -.37530264,-.16726129
374    .760904948E-04,0
    -.40958476,-.35439077
375    .762939453E-04,0
    -.35570388,-.43306577
376    .764973958E-04,0
    -.20134478,-.39957585
377    .767008464E-04,0
    -.326201E-02,-.27664033
378    .769042969E-04,0
    .18091507,-.12303226
379    .771077474E-04,0
    .27802118,.328362E-01
380    .773111979E-04,0
    .26113874,.15075313
381    .775146484E-04,0
    .12545653,.22598244
382    .77718099E-04,0
    -.5981954E-01,.26744405
383    .779215495E-04,0
    -.22170653,.28568797
384    .78125E-04,0
    -.31913782,.28658625
385    .783284505E-04,0
    -.32481442,.27280315
386    .78531901E-04,0
    -.28241992,.2612899
387    .787353516E-04,0
    -.2421204,.24103955
388    .789388021E-04,0
    -.22947624,.22989891
389    .791422526E-04,0
    -.26533596,.23034567
390    .793457031E-04,0
    -.30693826,.22806
391    .795491536E-04,0
    -.31077096,.23501204
392    .797526042E-04,0
    -.23250778,.23501204
393    .799560547E-04,0
    -.9228878E-01,.22806
394    .801595052E-04,0
    .7995547E-01,.23034567
395    .803629557E-04,0
    .22019126,.22989891
396    .805664062E-04,0
    .2594856,.24103955
397    .807698568E-04,0
    .19191411,.2612899
398    .809733073E-04,0
    .2709613E-01,.27280315
399    .811767578E-04,0
    -.17575545,.28658625
400    .813802083E-04,0
    -.35964114,.28568797
401    .815836589E-04,0
    -.45176912,.26744405
402    .817871094E-04,0
    -.4387373,.21333829
403    .819905599E-04,0
    -.32949491,.13366916
404    .821940104E-04,0
    -.14885302,.1496004E-01
405    .823974609E-04,0
    .3397325E-01,-.13139911
406    .826009115E-04,0
    .17863993,-.26583907
407    .82804362E-04,0
    .24654043,-.36710661
408    .830078125E-04,0
    .22412852,-.3875647
409    .83211263E-04,0
    .12213983,-.31344329
410    .834147135E-04,0
    -.2885413E-01,-.16136987
411    .836181641E-04,0
    -.18524361,.2387117E-01
412    .838216146E-04,0
    -.31719079,.1830836
413    .840250651E-04,0
    -.37867677,.26118294
414    .842285156E-04,0
    -.3712505,.242555
415    .844319661E-04,0
    -.29973281,.1214945
416    .846354167E-04,0
    -.18217528,-.4352419E-01
417    .848388672E-04,0
    -.4464239E-01,-.19080626
418    .850423177E-04,0
    .8599956E-01,-.25101421
419    .852457682E-04,0
    .18922904,-.2119588
420    .854492187E-04,0
    .25484806,-.7131328E-01
421    .856526693E-04,0
    .28356507,.12313638
422    .858561198E-04,0
    .28277287,.30473639
423    .860595703E-04,0
    .25912536,.4126651
424    .862630208E-04,0
    .20003029,.4126651
425    .864664714E-04,0
    .11846881,.30473639
426    .866699219E-04,0
    .85868E-03,.13578054
427    .868733724E-04,0
    -.1412278,-.5422931E-01
428    .870768229E-04,0
    -.28119723,-.19408264
429    .872802734E-04,0
    -.38224954,-.24264736
430    .87483724E-04,0
    -.40903491,-.20160752
431    .876871745E-04,0
    -.34278012,-.7599343E-01
432    .87890625E-04,0
    -.18130635,.7599343E-01
433    .880940755E-04,0
    .1333023E-01,.20160752
434    .88297526E-04,0
    .18557448,.25529152
435    .885009766E-04,0
    .27139269,.2111666
436    .887044271E-04,0
    .2401206,.7210547E-01
437    .889078776E-04,0
    .10690142,-.12741369
438    .891113281E-04,0
    -.7194129E-01,-.31553765
439    .893147786E-04,0
    -.21910959,-.44513434
440    .895182292E-04,0
    -.26954979,-.45816617
441    .897216797E-04,0
    -.20095976,-.34568388
442    .899251302E-04,0
    -.4095514E-01,-.15431612
443    .901285807E-04,0
    .14872571,.6522835E-01
444    .903320312E-04,0
    .31344329,.22444077
445    .905354818E-04,0
    .3875647,.26823669
446    .907389323E-04,0
    .36710661,.19767025
447    .909423828E-04,0
    .26583907,.3380907E-01
448    .911458333E-04,0
    .11875496,-.13942809
449    .913492839E-04,0
    -.3204401E-01,-.24887169
450    .915527344E-04,0
    -.15154532,-.24887169
451    .917561849E-04,0
    -.22170514,-.13942809
452    .919596354E-04,0
    -.2566428,.3380907E-01
453    .921630859E-04,0
    -.25321872,.19767025
454    .923665365E-04,0
    -.24108518,.28088085
455    .92569987E-04,0
    -.23185567,.24152474
456    .927734375E-04,0
    -.24275432,.8310451E-01
457    .92976888E-04,0
    -.25203859,-.14594927
458    .931803385E-04,0
    -.26025705,-.35648514
459    .933837891E-04,0
    -.255935,-.49063541
460    .935872396E-04,0
    -.23676689,-.49063541
461    .937906901E-04,0
    -.20991164,-.35648514
462    .939941406E-04,0
    -.18945355,-.14594927
463    .941975911E-04,0
    -.18916268,.8310451E-01
464    .944010417E-04,0
    -.22596425,.24152474
465    .946044922E-04,0
    -.26916818,.28088085
466    .948079427E-04,0
    -.30145302,.1850261
467    .950113932E-04,0
    -.29059898,.167251E-01
468    .952148437E-04,0
    -.20696662,-.15730425
469    .954182943E-04,0
    -.7689171E-01,-.25723854
470    .956217448E-04,0
    .7689171E-01,-.22542627
471    .958251953E-04,0
    .20696662,-.8987488E-01
472    .960286458E-04,0
    .29059898,.971863E-01
473    .962320964E-04,0
    .30145302,.24698459
474    .964355469E-04,0
    .26916818,.27597101
475    .966389974E-04,0
    .22596425,.18097249
476    .968424479E-04,0
    .20180683,-.1063086E-01
477    .970458984E-04,0
    .20653752,-.22085294
478    .97249349E-04,0
    .22778781,-.37292635
479    .974527995E-04,0
    .24513374,-.42206673
480    .9765625E-04,0
    .23248959,-.36921771
481    .978597005E-04,0
    .21070384,-.251051
482    .98063151E-04,0
    .18866136,-.11432537
483    .982666016E-04,0
    .19343998,.77358E-02
484    .984700521E-04,0
    .2367655,.10519463
485    .986735026E-04,0
    .30163742,.18708512
486    .988769531E-04,0
    .34695409,.25041847
487    .990804036E-04,0
    .33154646,.30787327
488    .992838542E-04,0
    .22550219,.32912356
489    .994873047E-04,0
    .6589268E-01,.29374538
490    .996907552E-04,0
    -.10724985,.19361046
491    .998942057E-04,0
    -.23255595,.4673029E-01
492    .100097656E-03,0
    -.28666171,-.10505586
493    .100301107E-03,0
    -.25926866,-.21148436
494    .100504557E-03,0
    -.20573353,-.24654043
495    .100708008E-03,0
    -.17870007,-.17863993
496    .100911458E-03,0
    -.19558251,-.3397325E-01
497    .101114909E-03,0
    -.26119207,.14885302
498    .101318359E-03,0
    -.31582619,.31685075
499    .10152181E-03,0
    -.30702346,.42165333
500    .10172526E-03,0
    -.20863404,.43389296
501    .101928711E-03,0
    -.3956348E-01,.35127429
502    .102132161E-03,0
    .14089923,.18655671
503    .102335612E-03,0
    .25724568,.537312E-02
504    .102539062E-03,0
    .26814433,-.14641304
505    .102742513E-03,0
    .15185264,-.21853811
506    .102945964E-03,0
    -.3252515E-01,-.18901152
507    .103149414E-03,0
    -.20934184,-.7387054E-01
508    .103352865E-03,0
    -.30460586,.7980681E-01
509    .103556315E-03,0
    -.27454383,.21528531
510    .103759766E-03,0
    -.12165868,.30390697
511    .103963216E-03,0
    .10396828,.31665338
512    .104166667E-03,0
    .33654866,.28326954
513    .104370117E-03,0
    .48009447,.23579293
514    .104573568E-03,0
    .4931263,.20452083
515    .104777018E-03,0
    .36669489,.20459648
516    .104980469E-03,0
    .13087071,.23138185
517    .105183919E-03,0
    -.11478156,.26610373
518    .10538737E-03,0
    -.287818,.28851564
519    .10559082E-03,0
    -.31755103,.28788196
520    .105794271E-03,0
    -.19276042,.26742386
521    .105997721E-03,0
    .2674318E-01,.24091142
522    .106201172E-03,0
    .23316346,.23613297
523    .106404622E-03,0
    .32377536,.24029298
524    .106608073E-03,0
    .25266875,.25401092
525    .106811523E-03,0
    .5377544E-01,.25236549
526    .107014974E-03,0
    -.17310293,.22354804
527    .107218424E-03,0
    -.31147124,.13616004
528    .107421875E-03,0
    -.28905933,.44191E-02
529    .107625326E-03,0
    -.11660282,-.15133559
530    .107828776E-03,0
    .11660282,-.30782006
531    .108032227E-03,0
    .28905933,-.40566078
532    .108235677E-03,0
    .31147124,-.42058379
533    .108439128E-03,0
    .17310293,-.3371683
534    .108642578E-03,0
    -.5377544E-01,-.1603973
535    .108846029E-03,0
    -.25266875,.4223906E-01
536    .109049479E-03,0
    -.32377536,.21338431
537    .10925293E-03,0
    -.23316346,.28882244
538    .10945638E-03,0
    -.2674318E-01,.25277189
539    .109659831E-03,0
    .19276042,.10758037
540    .109863281E-03,0
    .31755103,-.7690351E-01
541    .110066732E-03,0
    .287818,-.23435068
542    .110270182E-03,0
    .11478156,-.30649366
543    .110473633E-03,0
    -.13087071,-.30773045
544    .110677083E-03,0
    -.36669489,-.26454376
545    .110880534E-03,0
    -.4931263,-.23375355
546    .111083984E-03,0
    -.48009447,-.2402775
547    .111287435E-03,0
    -.33654866,-.2978052
548    .111490885E-03,0
    -.10396828,-.35243932
549    .111694336E-03,0
    .12165868,-.35171845
550    .111897786E-03,0
    .27454383,-.25104336
551    .112101237E-03,0
    .30460586,-.8128975E-01
552    .112304687E-03,0
    .19669768,.1103136
553    .112508138E-03,0
    .1544119E-01,.24578059
554    .112711589E-03,0
    -.1697288,.25554834
555    .112915039E-03,0
    -.27651118,.14972974
556    .11311849E-03,0
    -.24644442,-.3633853E-01
557    .11332194E-03,0
    -.10842999,-.22301963
558    .113525391E-03,0
    .8506455E-01,-.35322131
559    .113728841E-03,0
    .24958153,-.38003061
560    .113932292E-03,0
    .31291488,-.33282275
561    .114135742E-03,0
    .28774319,-.25923834
562    .114339193E-03,0
    .21295777,-.19615398
563    .114542643E-03,0
    .16162633,-.18672032
564    .114746094E-03,0
    .19343859,-.21429789
565    .114949544E-03,0
    .28038714,-.25345957
566    .115152995E-03,0
    .36820438,-.27587148
567    .115356445E-03,0
    .37487337,-.27079799
568    .115559896E-03,0
    .25731585,-.2495477
569    .115763346E-03,0
    .4159627E-01,-.23254457
570    .115966797E-03,0
    -.1842892,-.24693423
571    .116170247E-03,0
    -.31298124,-.27276223
572    .116373698E-03,0
    -.27846534,-.29951199
573    .116577148E-03,0
    -.9946144E-01,-.29331298
574    .116780599E-03,0
    .12711014,-.22943946
575    .116984049E-03,0
    .27791803,-.10807704
576    .1171875E-03,0
    .27080335,.438152E-01
577    .117390951E-03,0
    .11106774,.18529177
578    .117594401E-03,0
    -.11106774,.29308154
579    .117797852E-03,0
    -.27080335,.33100717
580    .118001302E-03,0
    -.27791803,.31164807
581    .118204753E-03,0
    -.12711014,.24895664
582    .118408203E-03,0
    .9946144E-01,.16092571
583    .118611654E-03,0
    .27846534,.5758246E-01
584    .118815104E-03,0
    .31298124,-.5923547E-01
585    .119018555E-03,0
    .1842892,-.18460969
586    .119222005E-03,0
    -.4159627E-01,-.31481137
587    .119425456E-03,0
    -.25731585,-.40292755
588    .119628906E-03,0
    -.36222922,-.42497003
589    .119832357E-03,0
    -.35112042,-.35386098
590    .120035807E-03,0
    -.26251097,-.19297793
591    .120239258E-03,0
    -.18507174,.1461415E-01
592    .120442708E-03,0
    -.18507174,.19799904
593    .120646159E-03,0
    -.26251097,.29066534
594    .120849609E-03,0
    -.35112042,.24849459
595    .12105306E-03,0
    -.36222922,.10837257
596    .12125651E-03,0
    -.25731585,-.776957E-01
597    .121459961E-03,0
    -.4159627E-01,-.23007338
598    .121663411E-03,0
    .1842892,-.2956924
599    .121866862E-03,0