File Format: MDS
; @(#) $Source: /cvs/sr/src/gemini/lib_netlist/slib-sml/source/NADC_bb.dat,v $ $Revision: 1.1 $ $Date: 1997/12/17 12:01:47 $
Title: Equation data
Date: Tuesday, 4 June 1996 21:29:33 GMT
Plotname: XX x[0]
Flags: real
No. Sweep Variables: 0
Sweep Variables:
No. Variables: 2
Variables:         0  IVAR  unknown type=real indep=yes
        1  _NMDEQN  unknown type=real indep=no
Values:
0    0
    -1
1    .411522633745644E-05
    -1
2    .823045267490507E-05
    -1
3    .123456790123537E-04
    -1
4    .164609053498023E-04
    -1
5    .20576131687251E-04
    -1
6    .246913580246996E-04
    -1
7    .288065843621482E-04
    -1
8    .329218106995969E-04
    -1
9    .370370370370455E-04
    -1
10    .411522633744941E-04
    -1
11    .452674897119427E-04
    -1
12    .493827160493914E-04
    -1
13    .5349794238684E-04
    -1
14    .576131687242886E-04
    -1
15    .617283950617373E-04
    -1
16    .658436213991859E-04
    -1
17    .699588477366345E-04
    -1
18    .740740740740832E-04
    -1
19    .781893004115318E-04
    -1
20    .823045267489804E-04
    -1
21    .864197530864291E-04
    -1
22    .905349794238777E-04
    -1
23    .946502057613263E-04
    -1
24    .98765432098775E-04
    -1
25    .102880658436224E-03
    -1
26    .106995884773672E-03
    -1
27    .111111111111121E-03
    -1
28    .115226337448569E-03
    -1
29    .119341563786018E-03
    -1
30    .123456790123467E-03
    -1
31    .127572016460915E-03
    -1
32    .131687242798364E-03
    -1
33    .135802469135813E-03
    -1
34    .139917695473261E-03
    -1
35    .14403292181071E-03
    -1
36    .148148148148158E-03
    -1
37    .152263374485607E-03
    -1
38    .156378600823056E-03
    -1
39    .160493827160504E-03
    -1
40    .164609053497953E-03
    -1
41    .168724279835402E-03
    -1
42    .17283950617285E-03
    -1
43    .176954732510299E-03
    -1
44    .181069958847748E-03
    -1
45    .185185185185196E-03
    -1
46    .189300411522645E-03
    -1
47    .193415637860093E-03
    -1
48    .197530864197542E-03
    -1
49    .201646090534991E-03
    -1
50    .205761316872439E-03
    -1
51    .209876543209888E-03
    -1
52    .213991769547337E-03
    -1
53    .218106995884785E-03
    -1
54    .222222222222234E-03
    -1
55    .226337448559682E-03
    -1
56    .230452674897131E-03
    -1
57    .23456790123458E-03
    -1
58    .238683127572028E-03
    -1
59    .242798353909477E-03
    -1
60    .246913580246926E-03
    -1
61    .251028806584374E-03
    -1
62    .255144032921823E-03
    -1
63    .259259259259272E-03
    -1
64    .26337448559672E-03
    -1
65    .267489711934169E-03
    -1
66    .271604938271618E-03
    -1
67    .275720164609066E-03
    -1
68    .279835390946515E-03
    -1
69    .283950617283963E-03
    -1
70    .288065843621412E-03
    -1
71    .292181069958861E-03
    -1
72    .296296296296309E-03
    -1
73    .300411522633758E-03
    -1
74    .304526748971207E-03
    -1
75    .308641975308655E-03
    -1
76    .312757201646104E-03
    -1
77    .316872427983552E-03
    -1
78    .320987654321001E-03
    -1
79    .325102880658449E-03
    -1
80    .329218106995898E-03
    -1
81    .333333333333347E-03
    -1
82    .337448559670795E-03
    -1
83    .341563786008244E-03
    -1
84    .345679012345693E-03
    -1
85    .349794238683141E-03
    -1
86    .35390946502059E-03
    -1
87    .358024691358038E-03
    -1
88    .362139917695487E-03
    -1
89    .366255144032936E-03
    -1
90    .370370370370384E-03
    -1
91    .374485596707833E-03
    -1
92    .378600823045282E-03
    -1
93    .38271604938273E-03
    -1
94    .386831275720179E-03
    -1
95    .390946502057628E-03
    -1
96    .395061728395076E-03
    -1
97    .399176954732525E-03
    -1
98    .403292181069973E-03
    -1
99    .407407407407422E-03
    -1
100    .411522633744871E-03
    -1
101    .415637860082319E-03
    -1
102    .419753086419768E-03
    -1
103    .423868312757217E-03
    -1
104    .427983539094665E-03
    -1
105    .432098765432114E-03
    -1
106    .436213991769563E-03
    -1
107    .440329218107011E-03
    -1
108    .44444444444446E-03
    -1
109    .448559670781908E-03
    -1
110    .452674897119357E-03
    -1
111    .456790123456806E-03
    -1
112    .460905349794254E-03
    -1
113    .465020576131703E-03
    -1
114    .469135802469151E-03
    -1
115    .4732510288066E-03
    -1
116    .477366255144049E-03
    -1
117    .481481481481497E-03
    -1
118    .485596707818946E-03
    -1
119    .489711934156395E-03
    -1
120    .493827160493843E-03
    -1
121    .497942386831292E-03
    -1
122    .502057613168741E-03
    -1
123    .506172839506189E-03
    -1
124    .510288065843638E-03
    -1
125    .514403292181086E-03
    -1
126    .518518518518535E-03
    -1
127    .522633744855984E-03
    -1
128    .526748971193432E-03
    -1
129    .530864197530881E-03
    -1
130    .53497942386833E-03
    -1
131    .539094650205778E-03
    -1
132    .543209876543227E-03
    -1
133    .547325102880675E-03
    -1
134    .551440329218124E-03
    -1
135    .555555555555573E-03
    -1
136    .559670781893021E-03
    -1
137    .56378600823047E-03
    -1
138    .567901234567919E-03
    -1
139    .572016460905367E-03
    -1
140    .576131687242816E-03
    -1
141    .580246913580265E-03
    -1
142    .584362139917713E-03
    -1
143    .588477366255162E-03
    -1
144    .59259259259261E-03
    -1
145    .596707818930059E-03
    -1
146    .600823045267508E-03
    -1
147    .604938271604956E-03
    -1
148    .609053497942405E-03
    -1
149    .613168724279854E-03
    -1
150    .617283950617302E-03
    -1
151    .621399176954751E-03
    -1
152    .6255144032922E-03
    -1
153    .629629629629648E-03
    -1
154    .633744855967097E-03
    -1
155    .637860082304545E-03
    -1
156    .641975308641994E-03
    -1
157    .646090534979443E-03
    -1
158    .650205761316891E-03
    -1
159    .65432098765434E-03
    -1
160    .658436213991789E-03
    -1
161    .662551440329237E-03
    -1
162    .666666666666686E-03
    -1
163    .670781893004135E-03
    -1
164    .674897119341583E-03
    -1
165    .679012345679032E-03
    -1
166    .68312757201648E-03
    -1
167    .687242798353929E-03
    -1
168    .691358024691378E-03
    -1
169    .695473251028826E-03
    -1
170    .699588477366275E-03
    -1
171    .703703703703724E-03
    -1
172    .707818930041172E-03
    -1
173    .711934156378621E-03
    -1
174    .716049382716069E-03
    -1
175    .720164609053518E-03
    -1
176    .724279835390967E-03
    -1
177    .728395061728415E-03
    -1
178    .732510288065864E-03
    -1
179    .736625514403313E-03
    -1
180    .740740740740761E-03
    -1
181    .74485596707821E-03
    -1
182    .748971193415658E-03
    -1
183    .753086419753107E-03
    -1
184    .757201646090556E-03
    -1
185    .761316872428004E-03
    -1
186    .765432098765453E-03
    -1
187    .769547325102902E-03
    -1
188    .77366255144035E-03
    -1
189    .777777777777799E-03
    -1
190    .781893004115248E-03
    -1
191    .786008230452696E-03
    -1
192    .790123456790145E-03
    -1
193    .794238683127593E-03
    -1
194    .798353909465042E-03
    -1
195    .802469135802491E-03
    -1
196    .806584362139939E-03
    -1
197    .810699588477388E-03
    -1
198    .814814814814837E-03
    -1
199    .818930041152285E-03
    -1
200    .823045267489734E-03
    -1
201    .827160493827183E-03
    -1
202    .831275720164631E-03
    -1
203    .83539094650208E-03
    -1
204    .839506172839528E-03
    -1
205    .843621399176977E-03
    -1
206    .847736625514426E-03
    -1
207    .851851851851874E-03
    -1
208    .855967078189323E-03
    -1
209    .860082304526771E-03
    -1
210    .86419753086422E-03
    -1
211    .868312757201669E-03
    -1
212    .872427983539117E-03
    -1
213    .876543209876566E-03
    -1
214    .880658436214015E-03
    -1
215    .884773662551463E-03
    -1
216    .888888888888912E-03
    -1
217    .893004115226361E-03
    -1
218    .897119341563809E-03
    -1
219    .901234567901258E-03
    -1
220    .905349794238706E-03
    -1
221    .909465020576155E-03
    -1
222    .913580246913604E-03
    -1
223    .917695473251052E-03
    -1
224    .921810699588501E-03
    -1
225    .92592592592595E-03
    1
226    .930041152263398E-03
    1
227    .934156378600847E-03
    1
228    .938271604938295E-03
    1
229    .942386831275744E-03
    1
230    .946502057613193E-03
    1
231    .950617283950641E-03
    1
232    .95473251028809E-03
    1
233    .958847736625539E-03
    1
234    .962962962962987E-03
    1
235    .967078189300436E-03
    1
236    .971193415637885E-03
    1
237    .975308641975333E-03
    1
238    .979423868312782E-03
    1
239    .983539094650231E-03
    1
240    .987654320987679E-03
    1
241    .991769547325128E-03
    1
242    .995884773662576E-03
    1
243    .100000000000002E-02
    1
244    .100411522633747E-02
    1
245    .100823045267492E-02
    -1
246    .101234567901237E-02
    -1
247    .101646090534982E-02
    -1
248    .102057613168727E-02
    -1
249    .102469135802472E-02
    -1
250    .102880658436216E-02
    1
251    .103292181069961E-02
    1
252    .103703703703706E-02
    1
253    .104115226337451E-02
    1
254    .104526748971196E-02
    1
255    .104938271604941E-02
    -1
256    .105349794238686E-02
    -1
257    .105761316872431E-02
    -1
258    .106172839506175E-02
    -1
259    .10658436213992E-02
    -1
260    .106995884773665E-02
    -1
261    .10740740740741E-02
    -1
262    .107818930041155E-02
    -1
263    .1082304526749E-02
    -1
264    .108641975308645E-02
    -1
265    .109053497942389E-02
    -1
266    .109465020576134E-02
    -1
267    .109876543209879E-02
    -1
268    .110288065843624E-02
    -1
269    .110699588477369E-02
    -1
270    .111111111111114E-02
    -1
271    .111522633744859E-02
    -1
272    .111934156378604E-02
    -1
273    .112345679012348E-02
    -1
274    .112757201646093E-02
    -1
275    .113168724279838E-02
    1
276    .113580246913583E-02
    1
277    .113991769547328E-02
    1
278    .114403292181073E-02
    1
279    .114814814814818E-02
    1
280    .115226337448562E-02
    1
281    .115637860082307E-02
    1
282    .116049382716052E-02
    1
283    .116460905349797E-02
    1
284    .116872427983542E-02
    1
285    .117283950617287E-02
    1
286    .117695473251032E-02
    1
287    .118106995884776E-02
    1
288    .118518518518521E-02
    1
289    .118930041152266E-02
    1
290    .119341563786011E-02
    -1
291    .119753086419756E-02
    -1
292    .120164609053501E-02
    -1
293    .120576131687246E-02
    -1
294    .12098765432099E-02
    -1
295    .121399176954735E-02
    1
296    .12181069958848E-02
    1
297    .122222222222225E-02
    1
298    .12263374485597E-02
    1
299    .123045267489715E-02
    1
300    .12345679012346E-02
    -1
301    .123868312757205E-02
    -1
302    .124279835390949E-02
    -1
303    .124691358024694E-02
    -1
304    .125102880658439E-02
    -1
305    .125514403292184E-02
    -1
306    .125925925925929E-02
    -1
307    .126337448559674E-02
    -1
308    .126748971193419E-02
    -1
309    .127160493827164E-02
    -1
310    .127572016460908E-02
    -1
311    .127983539094653E-02
    -1
312    .128395061728398E-02
    -1
313    .128806584362143E-02
    -1
314    .129218106995888E-02
    -1
315    .129629629629633E-02
    1
316    .130041152263378E-02
    1
317    .130452674897122E-02
    1
318    .130864197530867E-02
    1
319    .131275720164612E-02
    1
320    .131687242798357E-02
    -1
321    .132098765432102E-02
    -1
322    .132510288065847E-02
    -1
323    .132921810699592E-02
    -1
324    .133333333333336E-02
    -1
325    .133744855967081E-02
    1
326    .134156378600826E-02
    1
327    .134567901234571E-02
    1
328    .134979423868316E-02
    1
329    .135390946502061E-02
    1
330    .135802469135806E-02
    1
331    .13621399176955E-02
    1
332    .136625514403295E-02
    1
333    .13703703703704E-02
    1
334    .137448559670785E-02
    1
335    .13786008230453E-02
    1
336    .138271604938275E-02
    1
337    .13868312757202E-02
    1
338    .139094650205765E-02
    1
339    .139506172839509E-02
    1
340    .139917695473254E-02
    1
341    .140329218106999E-02
    1
342    .140740740740744E-02
    1
343    .141152263374489E-02
    1
344    .141563786008234E-02
    1
345    .141975308641978E-02
    -1
346    .142386831275723E-02
    -1
347    .142798353909468E-02
    -1
348    .143209876543213E-02
    -1
349    .143621399176958E-02
    -1
350    .144032921810703E-02
    -1
351    .144444444444448E-02
    -1
352    .144855967078193E-02
    -1
353    .145267489711937E-02
    -1
354    .145679012345682E-02
    -1
355    .146090534979427E-02
    1
356    .146502057613172E-02
    1
357    .146913580246917E-02
    1
358    .147325102880662E-02
    1
359    .147736625514407E-02
    1
360    .148148148148152E-02
    1
361    .148559670781896E-02
    1
362    .148971193415641E-02
    1
363    .149382716049386E-02
    1
364    .149794238683131E-02
    1
365    .150205761316876E-02
    1
366    .150617283950621E-02
    1
367    .151028806584365E-02
    1
368    .15144032921811E-02
    1
369    .151851851851855E-02
    1
370    .1522633744856E-02
    1
371    .152674897119345E-02
    1
372    .15308641975309E-02
    1
373    .153497942386835E-02
    1
374    .15390946502058E-02
    1
375    .154320987654324E-02
    1
376    .154732510288069E-02
    1
377    .155144032921814E-02
    1
378    .155555555555559E-02
    1
379    .155967078189304E-02
    1
380    .156378600823049E-02
    -1
381    .156790123456794E-02
    -1
382    .157201646090539E-02
    -1
383    .157613168724283E-02
    -1
384    .158024691358028E-02
    -1
385    .158436213991773E-02
    1
386    .158847736625518E-02
    1
387    .159259259259263E-02
    1
388    .159670781893008E-02
    1
389    .160082304526753E-02
    1
390    .160493827160497E-02
    1
391    .160905349794242E-02
    1
392    .161316872427987E-02
    1
393    .161728395061732E-02
    1
394    .162139917695477E-02
    1
395    .162551440329222E-02
    1
396    .162962962962967E-02
    1
397    .163374485596711E-02
    1
398    .163786008230456E-02
    1
399    .164197530864201E-02
    1
400    .164609053497946E-02
    -1
401    .165020576131691E-02
    -1
402    .165432098765436E-02
    -1
403    .165843621399181E-02
    -1
404    .166255144032925E-02
    -1
405    .16666666666667E-02
    -1
406    .167078189300415E-02
    -1
407    .16748971193416E-02
    -1
408    .167901234567905E-02
    -1
409    .16831275720165E-02
    -1
410    .168724279835395E-02
    1
411    .16913580246914E-02
    1
412    .169547325102884E-02
    1
413    .169958847736629E-02
    1
414    .170370370370374E-02
    1
415    .170781893004119E-02
    -1
416    .171193415637864E-02
    -1
417    .171604938271609E-02
    -1
418    .172016460905354E-02
    -1
419    .172427983539098E-02
    -1
420    .172839506172843E-02
    -1
421    .173251028806588E-02
    -1
422    .173662551440333E-02
    -1
423    .174074074074078E-02
    -1
424    .174485596707823E-02
    -1
425    .174897119341568E-02
    1
426    .175308641975312E-02
    1
427    .175720164609057E-02
    1
428    .176131687242802E-02
    1
429    .176543209876547E-02
    1
430    .176954732510292E-02
    -1
431    .177366255144037E-02
    -1
432    .177777777777782E-02
    -1
433    .178189300411526E-02
    -1
434    .178600823045271E-02
    -1
435    .179012345679016E-02
    1
436    .179423868312761E-02
    1
437    .179835390946506E-02
    1
438    .180246913580251E-02
    1
439    .180658436213996E-02
    1
440    .181069958847741E-02
    1
441    .181481481481485E-02
    1
442    .18189300411523E-02
    1
443    .182304526748975E-02
    1
444    .18271604938272E-02
    1
445    .183127572016465E-02
    1
446    .18353909465021E-02
    1
447    .183950617283955E-02
    1
448    .184362139917699E-02
    1
449    .184773662551444E-02
    1
450    .185185185185189E-02
    -1
451    .185596707818934E-02
    -1
452    .186008230452679E-02
    -1
453    .186419753086424E-02
    -1
454    .186831275720169E-02
    -1
455    .187242798353914E-02
    -1
456    .187654320987658E-02
    -1
457    .188065843621403E-02
    -1
458    .188477366255148E-02
    -1
459    .188888888888893E-02
    -1
460    .189300411522638E-02
    1
461    .189711934156383E-02
    1
462    .190123456790127E-02
    1
463    .190534979423872E-02
    1
464    .190946502057617E-02
    1
465    .191358024691362E-02
    1
466    .191769547325107E-02
    1
467    .192181069958852E-02
    1
468    .192592592592597E-02
    1
469    .193004115226342E-02
    1
470    .193415637860086E-02
    -1
471    .193827160493831E-02
    -1
472    .194238683127576E-02
    -1
473    .194650205761321E-02
    -1
474    .195061728395066E-02
    -1
475    .195473251028811E-02
    -1
476    .195884773662556E-02
    -1
477    .1962962962963E-02
    -1
478    .196707818930045E-02
    -1
479    .19711934156379E-02
    -1
480    .197530864197535E-02
    1
481    .19794238683128E-02
    1
482    .198353909465025E-02
    1
483    .19876543209877E-02
    1
484    .199176954732514E-02
    1
485    .199588477366259E-02
    1
486    .200000000000004E-02
    1
487    .200411522633749E-02
    1
488    .200823045267494E-02
    1
489    .201234567901239E-02
    1
490    .201646090534984E-02
    1
491    .202057613168729E-02
    1
492    .202469135802473E-02
    1
493    .202880658436218E-02
    1
494    .203292181069963E-02
    1
495    .203703703703708E-02
    -1
496    .204115226337453E-02
    -1
497    .204526748971198E-02
    -1
498    .204938271604943E-02
    -1
499    .205349794238688E-02
    -1
500    .205761316872432E-02
    -1
501    .206172839506177E-02
    -1
502    .206584362139922E-02
    -1
503    .206995884773667E-02
    -1
504    .207407407407412E-02
    -1
505    .207818930041157E-02
    -1
506    .208230452674902E-02
    -1
507    .208641975308646E-02
    -1
508    .209053497942391E-02
    -1
509    .209465020576136E-02
    -1
510    .209876543209881E-02
    -1
511    .210288065843626E-02
    -1
512    .210699588477371E-02
    -1
513    .211111111111116E-02
    -1
514    .21152263374486E-02
    -1
515    .211934156378605E-02
    1
516    .21234567901235E-02
    1
517    .212757201646095E-02
    1
518    .21316872427984E-02
    1
519    .213580246913585E-02
    1
520    .21399176954733E-02
    -1
521    .214403292181075E-02
    -1
522    .214814814814819E-02
    -1
523    .215226337448564E-02
    -1
524    .215637860082309E-02
    -1
525    .216049382716054E-02
    1
526    .216460905349799E-02
    1
527    .216872427983544E-02
    1
528    .217283950617289E-02
    1
529    .217695473251033E-02
    1
530    .218106995884778E-02
    -1
531    .218518518518523E-02
    -1
532    .218930041152268E-02
    -1
533    .219341563786013E-02
    -1
534    .219753086419758E-02
    -1
535    .220164609053502E-02
    1
536    .220576131687247E-02
    1
537    .220987654320992E-02
    1
538    .221399176954737E-02
    1
539    .221810699588482E-02
    1
540    .222222222222227E-02
    -1
541    .222633744855972E-02
    -1
542    .223045267489717E-02
    -1
543    .223456790123462E-02
    -1
544    .223868312757206E-02
    -1
545    .224279835390951E-02
    -1
546    .224691358024696E-02
    -1
547    .225102880658441E-02
    -1
548    .225514403292186E-02
    -1
549    .225925925925931E-02
    -1
550    .226337448559676E-02
    -1
551    .22674897119342E-02
    -1
552    .227160493827165E-02
    -1
553    .22757201646091E-02
    -1
554    .227983539094655E-02
    -1
555    .2283950617284E-02
    1
556    .228806584362145E-02
    1
557    .229218106995889E-02
    1
558    .229629629629634E-02
    1
559    .230041152263379E-02
    1
560    .230452674897124E-02
    -1
561    .230864197530869E-02
    -1
562    .231275720164614E-02
    -1
563    .231687242798359E-02
    -1
564    .232098765432104E-02
    -1
565    .232510288065848E-02
    -1
566    .232921810699593E-02
    -1
567    .233333333333338E-02
    -1
568    .233744855967083E-02
    -1
569    .234156378600828E-02
    -1
570    .234567901234573E-02
    -1
571    .234979423868318E-02
    -1
572    .235390946502062E-02
    -1
573    .235802469135807E-02
    -1
574    .236213991769552E-02
    -1
575    .236625514403297E-02
    1
576    .237037037037042E-02
    1
577    .237448559670787E-02
    1
578    .237860082304532E-02
    1
579    .238271604938276E-02
    1
580    .238683127572021E-02
    1
581    .239094650205766E-02
    1
582    .239506172839511E-02
    1
583    .239917695473256E-02
    1
584    .240329218107001E-02
    1
585    .240740740740746E-02
    1
586    .241152263374491E-02
    1
587    .241563786008235E-02
    1
588    .24197530864198E-02
    1
589    .242386831275725E-02
    1
590    .24279835390947E-02
    -1
591    .243209876543215E-02
    -1
592    .24362139917696E-02
    -1
593    .244032921810705E-02
    -1
594    .24444444444445E-02
    -1
595    .244855967078194E-02
    1
596    .245267489711939E-02
    1
597    .245679012345684E-02
    1
598    .246090534979429E-02
    1
599    .246502057613174E-02
    1
600    .246913580246919E-02
    1
601    .247325102880663E-02
    1
602    .247736625514408E-02
    1
603    .248148148148153E-02
    1
604    .248559670781898E-02
    1
605    .248971193415643E-02
    -1
606    .249382716049388E-02
    -1
607    .249794238683133E-02
    -1
608    .250205761316878E-02
    -1
609    .250617283950622E-02
    -1
610    .251028806584367E-02
    1
611    .251440329218112E-02
    1
612    .251851851851857E-02
    1
613    .252263374485602E-02
    1
614    .252674897119347E-02
    1
615    .253086419753092E-02
    -1
616    .253497942386836E-02
    -1
617    .253909465020581E-02
    -1
618    .254320987654326E-02
    -1
619    .254732510288071E-02
    -1
620    .255144032921816E-02
    -1
621    .255555555555561E-02
    -1
622    .255967078189306E-02
    -1
623    .256378600823051E-02
    -1
624    .256790123456795E-02
    -1
625    .25720164609054E-02
    1
626    .257613168724285E-02
    1
627    .25802469135803E-02
    1
628    .258436213991775E-02
    1
629    .25884773662552E-02
    1
630    .259259259259265E-02
    -1
631    .259670781893009E-02
    -1
632    .260082304526754E-02
    -1
633    .260493827160499E-02
    -1
634    .260905349794244E-02
    -1
635    .261316872427989E-02
    1
636    .261728395061734E-02
    1
637    .262139917695479E-02
    1
638    .262551440329223E-02
    1
639    .262962962962968E-02
    1
640    .263374485596713E-02
    1
641    .263786008230458E-02
    1
642    .264197530864203E-02
    1
643    .264609053497948E-02
    1
644    .265020576131693E-02
    1
645    .265432098765437E-02
    1
646    .265843621399182E-02
    1
647    .266255144032927E-02
    1
648    .266666666666672E-02
    1
649    .267078189300417E-02
    1
650    .267489711934162E-02
    -1
651    .267901234567907E-02
    -1
652    .268312757201651E-02
    -1
653    .268724279835396E-02
    -1
654    .269135802469141E-02
    -1
655    .269547325102886E-02
    1
656    .269958847736631E-02
    1
657    .270370370370376E-02
    1
658    .270781893004121E-02
    1
659    .271193415637866E-02
    1
660    .27160493827161E-02
    -1
661    .272016460905355E-02
    -1
662    .2724279835391E-02
    -1
663    .272839506172845E-02
    -1
664    .27325102880659E-02
    -1
665    .273662551440335E-02
    -1
666    .27407407407408E-02
    -1
667    .274485596707825E-02
    -1
668    .274897119341569E-02
    -1
669    .275308641975314E-02
    -1
670    .275720164609059E-02
    1
671    .276131687242804E-02
    1
672    .276543209876549E-02
    1
673    .276954732510294E-02
    1
674    .277366255144038E-02
    1
675    .277777777777783E-02
    -1
676    .278189300411528E-02
    -1
677    .278600823045273E-02
    -1
678    .279012345679018E-02
    -1
679    .279423868312763E-02
    -1
680    .279835390946508E-02
    -1
681    .280246913580253E-02
    -1
682    .280658436213997E-02
    -1
683    .281069958847742E-02
    -1
684    .281481481481487E-02
    -1
685    .281893004115232E-02
    1
686    .282304526748977E-02
    1
687    .282716049382722E-02
    1
688    .283127572016467E-02
    1
689    .283539094650211E-02
    1
690    .283950617283956E-02
    -1
691    .284362139917701E-02
    -1
692    .284773662551446E-02
    -1
693    .285185185185191E-02
    -1
694    .285596707818936E-02
    -1
695    .286008230452681E-02
    1
696    .286419753086426E-02
    1
697    .28683127572017E-02
    1
698    .287242798353915E-02
    1
699    .28765432098766E-02
    1
700    .288065843621405E-02
    1
701    .28847736625515E-02
    1
702    .288888888888895E-02
    1
703    .28930041152264E-02
    1
704    .289711934156384E-02
    1
705    .290123456790129E-02
    -1
706    .290534979423874E-02
    -1
707    .290946502057619E-02
    -1
708    .291358024691364E-02
    -1
709    .291769547325109E-02
    -1
710    .292181069958854E-02
    1
711    .292592592592598E-02
    1
712    .293004115226343E-02
    1
713    .293415637860088E-02
    1
714    .293827160493833E-02
    1
715    .294238683127578E-02
    1
716    .294650205761323E-02
    1
717    .295061728395068E-02
    1
718    .295473251028812E-02
    1
719    .295884773662557E-02
    1
720    .296296296296302E-02
    -1
721    .296707818930047E-02
    -1
722    .297119341563792E-02
    -1
723    .297530864197537E-02
    -1
724    .297942386831282E-02
    -1
725    .298353909465026E-02
    1
726    .298765432098771E-02
    1
727    .299176954732516E-02
    1
728    .299588477366261E-02
    1
729    .300000000000006E-02
    1
730    .300411522633751E-02
    1
731    .300823045267496E-02
    1
732    .301234567901241E-02
    1
733    .301646090534985E-02
    1
734    .30205761316873E-02
    1
735    .302469135802475E-02
    -1
736    .30288065843622E-02
    -1
737    .303292181069965E-02
    -1
738    .30370370370371E-02
    -1
739    .304115226337455E-02
    -1
740    .304526748971199E-02
    -1
741    .304938271604944E-02
    -1
742    .305349794238689E-02
    -1
743    .305761316872434E-02
    -1
744    .306172839506179E-02
    -1
745    .306584362139924E-02
    -1
746    .306995884773669E-02
    -1
747    .307407407407413E-02
    -1
748    .307818930041158E-02
    -1
749    .308230452674903E-02
    -1
750    .308641975308648E-02
    -1
751    .309053497942393E-02
    -1
752    .309465020576138E-02
    -1
753    .309876543209883E-02
    -1
754    .310288065843628E-02
    -1
755    .310699588477372E-02
    -1
756    .311111111111117E-02
    -1
757    .311522633744862E-02
    -1
758    .311934156378607E-02
    -1
759    .312345679012352E-02
    -1
760    .312757201646097E-02
    1
761    .313168724279842E-02
    1
762    .313580246913586E-02
    1
763    .313991769547331E-02
    1
764    .314403292181076E-02
    1
765    .314814814814821E-02
    -1
766    .315226337448566E-02
    -1
767    .315637860082311E-02
    -1
768    .316049382716056E-02
    -1
769    .316460905349801E-02
    -1
770    .316872427983545E-02
    -1
771    .31728395061729E-02
    -1
772    .317695473251035E-02
    -1
773    .31810699588478E-02
    -1
774    .318518518518525E-02
    -1
775    .31893004115227E-02
    1
776    .319341563786015E-02
    1
777    .319753086419759E-02
    1
778    .320164609053504E-02
    1
779    .320576131687249E-02
    1
780    .320987654320994E-02
    1
781    .321399176954739E-02
    1
782    .321810699588484E-02
    1
783    .322222222222229E-02
    1
784    .322633744855973E-02
    1
785    .323045267489718E-02
    -1
786    .323456790123463E-02
    -1
787    .323868312757208E-02
    -1
788    .324279835390953E-02
    -1
789    .324691358024698E-02
    -1
790    .325102880658443E-02
    -1
791    .325514403292187E-02
    -1
792    .325925925925932E-02
    -1
793    .326337448559677E-02
    -1
794    .326748971193422E-02
    -1
795    .327160493827167E-02
    1
796    .327572016460912E-02
    1
797    .327983539094657E-02
    1
798    .328395061728401E-02
    1
799    .328806584362146E-02
    1
800    .329218106995891E-02
    -1
801    .329629629629636E-02
    -1
802    .330041152263381E-02
    -1
803    .330452674897126E-02
    -1
804    .330864197530871E-02
    -1
805    .331275720164616E-02
    1
806    .33168724279836E-02
    1
807    .332098765432105E-02
    1
808    .33251028806585E-02
    1
809    .332921810699595E-02
    1
810    .33333333333334E-02
    1
811    .333744855967085E-02
    1
812    .33415637860083E-02
    1
813    .334567901234574E-02
    1
814    .334979423868319E-02
    1
815    .335390946502064E-02
    1
816    .335802469135809E-02
    1
817    .336213991769554E-02
    1
818    .336625514403299E-02
    1
819    .337037037037044E-02
    1
820    .337448559670788E-02
    -1
821    .337860082304533E-02
    -1
822    .338271604938278E-02
    -1
823    .338683127572023E-02
    -1
824    .339094650205768E-02
    -1
825    .339506172839513E-02
    -1
826    .339917695473258E-02
    -1
827    .340329218107003E-02
    -1
828    .340740740740747E-02
    -1
829    .341152263374492E-02
    -1
830    .341563786008237E-02
    -1
831    .341975308641982E-02
    -1
832    .342386831275727E-02
    -1
833    .342798353909472E-02
    -1
834    .343209876543217E-02
    -1
835    .343621399176961E-02
    -1
836    .344032921810706E-02
    -1
837    .344444444444451E-02
    -1
838    .344855967078196E-02
    -1
839    .345267489711941E-02
    -1
840    .345679012345686E-02
    1
841    .346090534979431E-02
    1
842    .346502057613176E-02
    1
843    .34691358024692E-02
    1
844    .347325102880665E-02
    1
845    .34773662551441E-02
    1
846    .348148148148155E-02
    1
847    .3485596707819E-02
    1
848    .348971193415645E-02
    1
849    .34938271604939E-02
    1
850    .349794238683134E-02
    1
851    .350205761316879E-02
    1
852    .350617283950624E-02
    1
853    .351028806584369E-02
    1
854    .351440329218114E-02
    1
855    .351851851851859E-02
    -1
856    .352263374485604E-02
    -1
857    .352674897119348E-02
    -1
858    .353086419753093E-02
    -1
859    .353497942386838E-02
    -1
860    .353909465020583E-02
    1