File Format: MDS
; @(#) $Source: /cvs/sr/src/gemini/lib_netlist/slib-sml/source/PHS_rf.dat,v $ $Revision: 1.1 $ $Date: 1997/12/17 12:01:55 $
Title: Equation data
Date: Tuesday, 4 June 1996 21:36:14 GMT
Plotname: XX x[0]
Flags: complex
No. Sweep Variables: 0
Sweep Variables:
No. Variables: 2
Variables:         0  IVAR  unknown type=real indep=yes
        1  _NMDEQN  unknown type=complex indep=no
Values:
0    0,0
    -.533819558042661,-.846047613455619
1    .5208333333323E-06,0
    -.465788947110212,-.885325104994079
2    .104166666666563E-05,0
    -.39488966382802,-.919147205995603
3    .156249999999896E-05,0
    -.321559996171374,-.947303443540502
4    .208333333333229E-05,0
    -.246251872052175,-.96961811021229
5    .260416666666562E-05,0
    -.169428006682576,-.9859519632602
6    .312499999999895E-05,0
    -.915282583730653E-01,-.996207659689805
7    .364583333333228E-05,0
    -.130945904887533E-01,-1.00031384866997
8    .416666666666561E-05,0
    .654229322473591E-01,-.998250712605615
9    .468749999999894E-05,0
    .143541322585839,-.990032990156403
10    .520833333333227E-05,0
    .220778575259193,-.975713434103135
11    .57291666666656E-05,0
    .296656862192634,-.95538190839938
12    .624999999999893E-05,0
    .370706063154891,-.929164381381429
13    .677083333333226E-05,0
    .442467434917759,-.897221942619957
14    .729166666666559E-05,0
    .511497172284421,-.859749909500371
15    .781249999999892E-05,0
    .577369626697308,-.816977011593647
16    .833333333333225E-05,0
    .639704939470854,-.76914544380243
17    .885416666666558E-05,0
    .698069431977895,-.716587979440811
18    .937499999999891E-05,0
    .752130847244951,-.659608849170518
19    .989583333333224E-05,0
    .801558083518919,-.598559998357054
20    .104166666666656E-04,0
    .84604761345562,-.533819558042659
21    .109374999999989E-04,0
    .88532510499408,-.465788947110211
22    .114583333333322E-04,0
    .919147205995603,-.394889663828019
23    .119791666666656E-04,0
    .947303443540503,-.321559996171373
24    .124999999999989E-04,0
    .96961811021229,-.246251872052173
25    .130208333333322E-04,0
    .9859519632602,-.169428006682575
26    .135416666666656E-04,0
    .996157395127191,-.914992381137264E-01
27    .140624999999989E-04,0
    1.00022084286146,-.130408935589908E-01
28    .145833333333322E-04,0
    .99813229492852,.654913007268428E-01
29    .151041666666656E-04,0
    .989913047957796,.143610571248676
30    .156249999999989E-04,0
    .975617544778318,.220833936989183
31    .161458333333322E-04,0
    .955331833887369,.296685772728281
32    .166666666666655E-04,0
    .929173102696474,.370701027903993
33    .171874999999989E-04,0
    .897290357747207,.442427935428248
34    .177083333333322E-04,0
    .859866012078739,.511430140432047
35    .182291666666655E-04,0
    .817117864159366,.577288305432943
36    .187499999999989E-04,0
    .769346945351056,.639541212614445
37    .192708333333322E-04,0
    .716810653018416,.697853184610456
38    .197916666666655E-04,0
    .659806680450432,.75190498404415
39    .203124999999989E-04,0
    .598690137340438,.801369865150201
40    .208333333333322E-04,0
    .533851826332849,.845938578024301
41    .213541666666655E-04,0
    .465713053272798,.885321711615775
42    .218749999999988E-04,0
    .394718423319566,.919254294280888
43    .223958333333322E-04,0
    .321327642719276,.947502095266349
44    .229166666666655E-04,0
    .24600758073268,.969868614429483
45    .234374999999988E-04,0
    .16922580982981,.98620149873785
46    .239583333333322E-04,0
    .914216131910922E-01,.99637802650834
47    .244791666666655E-04,0
    .13112264531677E-01,1.00036336955258
48    .249999999999988E-04,0
    -.652783326814811E-01,.998162488756243
49    .255208333333321E-04,0
    -.143295235173989,.989819889108243
50    .260416666666655E-04,0
    -.22048027826386,.97541676425555
51    .265624999999988E-04,0
    -.296369807938036,.955063748815174
52    .270833333333321E-04,0
    -.370494608550676,.928894936701768
53    .276041666666655E-04,0
    -.442382717380425,.897064463249333
54    .281249999999988E-04,0
    -.511565204365788,.859746385027346
55    .286458333333321E-04,0
    -.577584344330454,.817137836806921
56    .291666666666655E-04,0
    -.64003420115727,.76946876097532
57    .296874999999988E-04,0
    -.698448523664651,.717013511315129
58    .302083333333321E-04,0
    -.752481230873267,.660050999609082
59    .307291666666655E-04,0
    -.801803993185956,.598925403881614
60    .312499999999988E-04,0
    -.846132823987966,.534027208406129
61    .317708333333321E-04,0
    -.88522618046001,.465788559648315
62    .322916666666654E-04,0
    -.918880136524958,.394674169435594
63    .328124999999988E-04,0
    -.946921892423855,.321169093333344
64    .333333333333321E-04,0
    -.969203263145784,.245765431858159
65    .338541666666654E-04,0
    -.985595827810353,.168950297275006
66    .343749999999988E-04,0
    -.995957956096843,.911930776217474E-01
67    .348958333333321E-04,0
    -1.00023098055014,.129836394244744E-01
68    .354166666666654E-04,0
    -.998360617421506,-.652741930449993E-01
69    .359374999999987E-04,0
    -.990319869641322,-.143153765213736
70    .364583333333321E-04,0
    -.976121365150234,-.220227502215132
71    .369791666666654E-04,0
    -.955825378111371,-.296057952301049
72    .374999999999987E-04,0
    -.929545823547621,-.370191694902259
73    .380208333333321E-04,0
    -.897452721813199,-.442158171348575
74    .385416666666654E-04,0
    -.859770278575972,-.511474493455912
75    .390624999999987E-04,0
    -.816770594044426,-.577656009601259
76    .395833333333321E-04,0
    -.768754025022232,-.640155941510613
77    .401041666666654E-04,0
    -.716086705489036,-.698595484049465
78    .406249999999987E-04,0
    -.659100145779538,-.752621922460451
79    .41145833333332E-04,0
    -.598152213379756,-.801907242701795
80    .416666666666654E-04,0
    -.53360336577109,-.846174920608945
81    .421874999999987E-04,0
    -.465816628534862,-.88519659167933
82    .42708333333332E-04,0
    -.395161967353563,-.918784429548382
83    .432291666666654E-04,0
    -.322023815549023,-.946781083520539
84    .437499999999987E-04,0
    -.246809729770183,-.96904960237911
85    .44270833333332E-04,0
    -.16995776424728,-.985465839576463
86    .447916666666654E-04,0
    -.919501841419648E-01,-.995990540675034
87    .453124999999987E-04,0
    -.133099984526055E-01,-1.00043117714723
88    .45833333333332E-04,0
    .654707142026114E-01,-.99869576363804
89    .463541666666654E-04,0
    .143852629255696,-.990724774151148
90    .468749999999987E-04,0
    .221294910623793,-.976511086668996
91    .47395833333332E-04,0
    .29727129446903,-.956113145493162
92    .479166666666653E-04,0
    .371284770162833,-.929662343143263
93    .484374999999987E-04,0
    .442878126516977,-.897362608077445
94    .48958333333332E-04,0
    .511638413808579,-.859481767275958
95    .494791666666653E-04,0
    .577194628541167,-.816336006601174
96    .499999999999987E-04,0
    .63921929699297,-.768195111326126
97    .50520833333332E-04,0
    .697361852888957,-.71551737328512
98    .510416666666653E-04,0
    .751342639971987,-.65864179879575
99    .515624999999987E-04,0
    .800854341680456,-.597907225204864
100    .52083333333332E-04,0
    .845581884951853,-.533631474279888
101    .526041666666653E-04,0
    .885205062278265,-.466119645646006
102    .531249999999986E-04,0
    .919408948194842,-.395680614793611
103    .53645833333332E-04,0
    .947900494640556,-.322647987534181
104    .541666666666653E-04,0
    .970428200601383,-.247400561746284
105    .546874999999986E-04,0
    .986800888322792,-.170377183106799
106    .55208333333332E-04,0
    .996870457426721,-.920777431697915E-01
107    .557291666666653E-04,0
    1.0006320425099,-.130982992186979E-01
108    .562499999999986E-04,0
    .998136254800122,.659954521078266E-01
109    .56770833333332E-04,0
    .989491167172847,.14459259029736
110    .572916666666653E-04,0
    .974846085570086,.222098696605915
111    .578124999999986E-04,0
    .954369326612584,.297964723181906
112    .58333333333332E-04,0
    .928228912187208,.371708262144665
113    .588541666666653E-04,0
    .896580510380505,.442922720642645
114    .593749999999986E-04,0
    .859565486312426,.511272369272484
115    .598958333333319E-04,0
    .817319757811448,.576474265265517
116    .604166666666653E-04,0
    .769981831545541,.638195825044557
117    .609374999999986E-04,0
    .717764978845945,.696238127061559
118    .614583333333319E-04,0
    .660891118752709,.750352641171919
119    .619791666666653E-04,0
    .599678096110947,.800213277065039
120    .624999999999986E-04,0
    .534528021422284,.845438010728003
121    .630208333333319E-04,0
    .465921813893471,.885603932911545
122    .635416666666653E-04,0
    .394400973612431,.920278578346064
123    .640624999999986E-04,0
    .320539543874974,.949061724406665
124    .645833333333319E-04,0
    .244911508974128,.971629209249522
125    .651041666666652E-04,0
    .168060099046795,.987769428529496
126    .656249999999986E-04,0
    .905354858885799E-01,.997450470257192
127    .661458333333319E-04,0
    .127249017664304E-01,1.00067112703004
128    .666666666666652E-04,0
    -.650502394674525E-01,.9975953603948
129    .671874999999986E-04,0
    -.142469103976459,.988458936874522
130    .677083333333319E-04,0
    -.21921085563894,.973525765414649
131    .682291666666652E-04,0
    -.294921798147866,.953039773852707
132    .687499999999986E-04,0
    -.369189233381348,.927187000462865
133    .692708333333319E-04,0
    -.441528776601266,.896076673829603
134    .697916666666652E-04,0
    -.511389216228903,.859746228736821
135    .703124999999985E-04,0
    -.578175317746385,.818190105860898
136    .708333333333319E-04,0
    -.641345171860948,.771360708881684
137    .713541666666652E-04,0
    -.700242053637245,.719387290773909
138    .718749999999985E-04,0
    -.754400507884983,.662426072162678
139    .723958333333319E-04,0
    -.803445851958558,.600798435845192
140    .729166666666652E-04,0
    -.84713507690368,.534981962557864
141    .734374999999985E-04,0
    -.885350548091369,.465592008253276
142    .739583333333319E-04,0
    -.918072019854981,.393336901594566
143    .744791666666652E-04,0
    -.945332352486659,.318954859212351
144    .749999999999985E-04,0
    -.967166183842878,.243145115519704
145    .755208333333319E-04,0
    -.983562836894239,.166507626636181
146    .760416666666652E-04,0
    -.994453511274363,.8952942307735E-01
147    .765624999999985E-04,0
    -.999638590159051,.1252736372886E-01
148    .770833333333318E-04,0
    -.998877579672393,-.643442044844055E-01
149    .776041666666652E-04,0
    -.991901351799993,-.140961991292056
150    .781249999999985E-04,0
    -.978475433307143,-.217191385881024
151    .786458333333318E-04,0
    -.958463152609461,-.29281199653112
152    .791666666666652E-04,0
    -.931878893657568,-.367459207292551
153    .796874999999985E-04,0
    -.898918941418991,-.440596063061732
154    .802083333333318E-04,0
    -.859961587289125,-.511523874509158
155    .807291666666652E-04,0
    -.815534436647594,-.579431866800964
156    .812499999999985E-04,0
    -.766178777229349,-.643487531011764
157    .817708333333318E-04,0
    -.71262749829542,-.70287797703724
158    .822916666666651E-04,0
    -.655435884118406,-.75700835565138
159    .828124999999985E-04,0
    -.595048331113152,-.805480947234574
160    .833333333333318E-04,0
    -.531746436561309,-.848147389578264
161    .838541666666651E-04,0
    -.465655946346687,-.885088671188702
162    .843749999999985E-04,0
    -.396793947116207,-.916549902078691
163    .848958333333318E-04,0
    -.32514788601487,-.942841942742312
164    .854166666666651E-04,0
    -.250770370620315,-.964229887766774
165    .859374999999985E-04,0
    -.173869131199933,-.980832400419401
166    .864583333333318E-04,0
    -.949464066594012E-01,-.992544985715785
167    .869791666666651E-04,0
    -.146130425464406E-01,-.999051242745866
168    .874999999999985E-04,0
    .663022762192462E-01,-.999846077802978
169    .880208333333318E-04,0
    .14679799938136,-.994324887799929
170    .885416666666651E-04,0
    .225840288525238,-.981915524952744
171    .890624999999984E-04,0
    .302487840872583,-.96221533387074
172    .895833333333318E-04,0
    .376005990744413,-.935107855768802
173    .901041666666651E-04,0
    .445944500994423,-.900832224670644
174    .906249999999984E-04,0
    .512159674188686,-.859986836409587
175    .911458333333317E-04,0
    .574772353569104,-.813461971219674
176    .916666666666651E-04,0
    .634127136585484,-.76226497781589
177    .921874999999984E-04,0
    .690438308725115,-.707517328276219
178    .927083333333317E-04,0
    .743900101760912,-.650082497174962
179    .932291666666651E-04,0
    .794423225153005,-.590530090992422
180    .937499999999984E-04,0
    .841584219595121,-.529042140194502
181    .942708333333317E-04,0
    .884624640900231,-.465423581399974
182    .947916666666651E-04,0
    .92253167792006,-.399201188656408
183    .953124999999984E-04,0
    .954189399842706,-.329795359807442
184    .958333333333317E-04,0
    .978573303551421,-.256732215387656
185    .96354166666665E-04,0
    .994948943557524,-.179852319167727
186    .968749999999984E-04,0
    1.00297096880002,-.995159381156653E-01
187    .973958333333317E-04,0
    1.00294989206139,-.165571395495918E-01
188    .97916666666665E-04,0
    .995655915245703,.677093647434852E-01
189    .984374999999984E-04,0
    .982229761555154,.151583595737086
190    .989583333333317E-04,0
    .963965932297639,.233251797404294
191    .99479166666665E-04,0
    .942043686136337,.311072904260116
192    .999999999999984E-04,0
    .917264376543017,.383853733480813
193    .100520833333332E-03,0
    .88985356061334,.45105310321722
194    .101041666666665E-03,0
    .859377958250109,.5128651564498
195    .101562499999998E-03,0
    .824807441635746,.570153591136829
196    .102083333333332E-03,0
    .784784068808374,.624283846386779
197    .102604166666665E-03,0
    .737776474814263,.676624611640738
198    .103124999999998E-03,0
    .68259310650553,.728381518018877
199    .103645833333332E-03,0
    .618756147378368,.780111976223449
200    .104166666666665E-03,0
    .546750578429867,.831487712119023
201    .104687499999998E-03,0
    .468119690792249,.881200071892209
202    .105208333333332E-03,0
    .385345093809807,.927071298090451
203    .105729166666665E-03,0
    .3015085148777,.966371364940515
204    .106249999999998E-03,0
    .219777904206111,.99629767588298
205    .106770833333332E-03,0
    .142802077524339,1.0145371600082
206    .107291666666665E-03,0
    .720965095323036E-01,1.01980901596067
207    .107812499999998E-03,0
    .773369946234246E-02,1.01225035531118
208    .108333333333332E-03,0
    -.520284655260439E-01,.993609229646216
209    .108854166666665E-03,0
    -.110467831918868,.967097581348153
210    .109374999999998E-03,0
    -.171926345612011,.936953973874667
211    .109895833333332E-03,0
    -.24100148129666,.907736011290902
212    .110416666666665E-03,0
    -.321540957518365,.883446453357002
213    .110937499999998E-03,0
    -.41560050003126,.866634800043493
214    .111458333333332E-03,0
    -.522551381387761,.85763610041425
215    .111979166666665E-03,0
    -.638520557989916,.854101518094365
216    .112499999999998E-03,0
    -.756278163208138,.850935883852304
217    .113020833333332E-03,0
    -.865789046570653,.840741514319159
218    .113541666666665E-03,0
    -.955220152802255,.814617507131813
219    .114062499999998E-03,0
    -1.01236734658858,.763460669203399
220    .114583333333332E-03,0
    -1.02642286865241,.679389019829399
221    .115104166666665E-03,0
    -.989738386412014,.557183677517145
222    .115624999999998E-03,0
    -.899337315043816,.395507442402103
223    .116145833333332E-03,0
    -.757922050567698,.197696135078881
224    .116666666666665E-03,0
    -.574180857554835,-.280293095256123E-01
225    .117187499999998E-03,0
    -.362293243600696,-.269003667223769
226    .117708333333332E-03,0
    -.140708463271028,-.509237736409774
227    .118229166666665E-03,0
    .699824414175521E-01,-.730837689045728
228    .118749999999998E-03,0
    .249196428080361,-.916163372170296
229    .119270833333332E-03,0
    .378878001077262,-1.04968627172162
230    .119791666666665E-03,0
    .445712379347247,-1.11983277094108
231    .120312499999998E-03,0
    .442796017307828,-1.12036380430365
232    .120833333333332E-03,0
    .370518600795444,-1.05113301436011
233    .121354166666665E-03,0
    .236524635901323,-.918118520567715
234    .121874999999998E-03,0
    .54754278314961E-01,-.732722848272321
235    .122395833333332E-03,0
    -.156303983188235,-.510435566506379
236    .122916666666665E-03,0
    -.375827268075688,-.269048967794118
237    .123437499999998E-03,0
    -.583420886960302,-.265923934850881E-01
238    .123958333333332E-03,0
    -.761202499641943,.200524449784141
239    .124479166666665E-03,0
    -.895849042077922,.399263954405081
240    .124999999999998E-03,0
    -.979787141611698,.56109656157351
241    .125520833333331E-03,0
    -1.01155707207123,.682528317902643
242    .126041666666665E-03,0
    -.995322674695214,.764956196665789
243    .126562499999998E-03,0
    -.939647120768193,.813905223724203
244    .127083333333331E-03,0
    -.855760679612303,.837783706121899
245    .127604166666665E-03,0
    -.755614541955864,.846353315995514
246    .128124999999998E-03,0
    -.650109493961008,.849151746598169
247    .128645833333331E-03,0
    -.54742423805602,.854047104301945
248    .129166666666665E-03,0
    -.452280229379025,.866200450555391
249    .129687499999998E-03,0
    -.365793823156305,.887512399650844
250    .130208333333331E-03,0
    -.285945065145447,.916620005956313
251    .130729166666665E-03,0
    -.208624743633095,.9494346156714
252    .131249999999998E-03,0
    -.129013574908964,.980118838206654
253    .131770833333332E-03,0
    -.43030637469774E-01,1.00234309222423
254    .132291666666665E-03,0
    .514143283584442E-01,1.01062294153663
255    .132812499999998E-03,0
    .153588034972613,1.00152656803546
256    .133333333333331E-03,0
    .259684019304716,.974533687810877
257    .133854166666665E-03,0
    .363078222138077,.932506124661
258    .134374999999998E-03,0
    .455349072183576,.881519579258915
259    .134895833333331E-03,0
    .527455225225392,.830109118929738
260    .135416666666665E-03,0
    .571203438729049,.78808001444125
261    .135937499999998E-03,0
    .580612553601372,.764959640714946
262    .136458333333332E-03,0
    .552966001155143,.768319281018414
263    .136979166666665E-03,0
    .489374532290362,.802209175583212
264    .137499999999998E-03,0
    .394754204951444,.865952641176554
265    .138020833333331E-03,0
    .277222760097973,.953513942924427
266    .138541666666665E-03,0
    .147023683906941,1.05366659798976
267    .139062499999998E-03,0
    .151010013962462E-01,1.15060799806132
268    .139583333333332E-03,0
    -.108326331078202,1.22591248732763
269    .140104166666665E-03,0
    -.215098428399681,1.26058117952761
270    .140624999999998E-03,0
    -.3000595710682,1.23763261959521
271    .141145833333331E-03,0
    -.361502103072778,1.14468216562091
272    .141666666666665E-03,0
    -.401048441622138,.976187082393772
273    .142187499999998E-03,0
    -.423008883074347,.735017369726305
274    .142708333333331E-03,0
    -.433339593435857,.433075542745917
275    .143229166666665E-03,0
    -.43838992351465,.907961250882265E-01
276    .143749999999998E-03,0
    -.443685294595083,-.264523195519909
277    .144270833333331E-03,0
    -.452815278956774,-.601356849293175
278    .144791666666665E-03,0
    -.466954105365901,-.887352855428013
279    .145312499999998E-03,0
    -.484664847383203,-1.09316155775298
280    .145833333333331E-03,0
    -.50232276427482,-1.1960541604111
281    .146354166666665E-03,0
    -.514958983501307,-1.18295717247203
282    .146874999999998E-03,0
    -.517388863717746,-1.05244922032659
283    .147395833333331E-03,0
    -.505418852374204,-.815411056211438
284    .147916666666665E-03,0
    -.476909428112309,-.494188902835472
285    .148437499999998E-03,0
    -.432493709340394,-.120328259580648
286    .148958333333331E-03,0
    -.375732995708004,.268857735543546
287    .149479166666665E-03,0
    -.313006320548675,.63451017453623
288    .149999999999998E-03,0
    -.252538794385739,.940618031785949
289    .150520833333331E-03,0
    -.20314472069815,1.15806762017817
290    .151041666666665E-03,0
    -.172835920185386,1.26780835962493
291    .151562499999998E-03,0
    -.167441445682905,1.26270914279597
292    .152083333333331E-03,0
    -.189506400990217,1.14787661754231
293    .152604166666665E-03,0
    -.237666502954734,.939419209206321
294    .153124999999998E-03,0
    -.306620780010571,.661860772523301
295    .153645833333331E-03,0
    -.387727987157069,.344598049292254
296    .154166666666665E-03,0
    -.470152847191717,.17896310699373E-01
297    .154687499999998E-03,0
    -.542346730573488,-.290821015163154
298    .155208333333331E-03,0
    -.593790700068208,-.560264770081959
299    .155729166666665E-03,0
    -.616438168594418,-.777214808489219
300    .156249999999998E-03,0
    -.605887179344742,-.93720526131903
301    .156770833333331E-03,0
    -.561959082651769,-1.0438043213346
302    .157291666666665E-03,0
    -.488609460875314,-1.10669573615149
303    .157812499999998E-03,0
    -.393183063024645,-1.13893315138922
304    .158333333333331E-03,0
    -.285135788560554,-1.15385931444015
305    .158854166666665E-03,0
    -.174439503245722,-1.16222213878576
306    .159374999999998E-03,0
    -.699392157760409E-01,-1.16994206172618
307    .159895833333331E-03,0
    .220343994404691E-01,-1.17702317889131
308    .160416666666665E-03,0
    .985709527506222E-01,-1.17761744232075
309    .160937499999998E-03,0
    .160437319636002,-1.16121386224716
310    .161458333333331E-03,0
    .211608418287656,-1.11489445845951
311    .161979166666665E-03,0
    .258159960591621,-1.02613543564276
312    .162499999999998E-03,0
    .30670724375389,-.885698513907616
313    .163020833333331E-03,0
    .362666424821425,-.690110471118276
314    .163541666666665E-03,0
    .428657694073248,-.443295065442291
315    .164062499999998E-03,0
    .50335838626565,-.157057799110798
316    .164583333333331E-03,0
    .580973154663446,.14970224077999
317    .165104166666665E-03,0
    .651822102139341,.452940598826317
318    .165624999999998E-03,0
    .703352115903292,.726284602741474
319    .166145833333331E-03,0
    .721996172972917,.94445967936133
320    .166666666666665E-03,0
    .695436385231672,1.08662395522045
321    .167187499999998E-03,0
    .614887136310058,1.13923943637027
322    .167708333333331E-03,0
    .477036143744079,1.09803808205132
323    .168229166666665E-03,0
    .285299418315952,.968801162363836
324    .168749999999998E-03,0
    .501424449076895E-01,.766844212719748
325    .169270833333331E-03,0
    -.211638830224556,.515285076812733
326    .169791666666665E-03,0
    -.478573473028491,.242280700514333
327    .170312499999998E-03,0
    -.727156684796382,-.220806182106158E-01
328    .170833333333331E-03,0
    -.93449582093905,-.249435266334977
329    .171354166666665E-03,0
    -1.08132966048744,-.416243540367792
330    .171874999999998E-03,0
    -1.1544364356017,-.506281900490371
331    .172395833333331E-03,0
    -1.14826129516272,-.512169916541317
332    .172916666666665E-03,0
    -1.06548088336555,-.435794764356972
333    .173437499999998E-03,0
    -.91641798262177,-.287641607765835
334    .173958333333331E-03,0
    -.717399493272886,-.851760350866655E-01
335    .174479166666665E-03,0
    -.488318140393366,.149467168719638
336    .174999999999998E-03,0
    -.249774673242051,.392243489681829
337    .175520833333331E-03,0
    -.20325674624182E-01,.619661147781651
338    .176041666666665E-03,0
    .185946927095845,.811507742094418
339    .176562499999998E-03,0
    .360827643898335,.952621128552378
340    .177083333333331E-03,0
    .502409128799317,1.03410561018845
341    .177604166666665E-03,0
    .614404290666766,1.05375332996186
342    .178124999999998E-03,0
    .704496795734132,1.0157129783351
343    .178645833333331E-03,0
    .782034895231789,.929509833343638
344    .179166666666665E-03,0
    .85548533147002,.808581241696823
345    .179687499999998E-03,0
    .93010692947438,.668527051360626
346    .180208333333331E-03,0
    1.00623861966937,.52528908859547
347    .180729166666664E-03,0
    1.07867899106632,.393407564015102
348    .181249999999998E-03,0
    1.13701394482994,.284718556526652
349    .181770833333331E-03,0
    1.16714079076477,.207256771956851
350    .182291666666665E-03,0
    1.15366201567962,.16478214476599
351    .182812499999998E-03,0
    1.08278534341009,.156786331373365
352    .183333333333331E-03,0
    .945265137162861,.178977441118439
353    .183854166666664E-03,0
    .738892316085937,.224162059113377
354    .184374999999998E-03,0
    .470094583265593,.283403922701336
355    .184895833333331E-03,0
    .154333827013735,.347310737451423
356    .185416666666664E-03,0
    -.184845908248517,.407212405513439
357    .185937499999998E-03,0
    -.517987027722366,.456437176671515
358    .186458333333331E-03,0
    -.813042444867803,.490891302375579
359    .186979166666665E-03,0
    -1.03914131103702,.509362436012828
360    .187499999999998E-03,0
    -1.17052918320976,.513395698988591
361    .188020833333331E-03,0
    -1.19003588336576,.506707098511878
362    .188541666666664E-03,0
    -1.09160459239752,.494245670646847
363    .189062499999998E-03,0
    -.881519214427261,.481046396926694
364    .189583333333331E-03,0
    -.578140423686419,.47105450760325
365    .190104166666665E-03,0
    -.210159555251588,.466115851165447
366    .190624999999998E-03,0
    .186455913292969,.465309008399485
367    .191145833333331E-03,0
    .5723235295012,.464772046648187
368    .191666666666665E-03,0
    .909000316896092,.458068080966362
369    .192187499999998E-03,0
    1.16329874922577,.43707146536622
370    .192708333333331E-03,0
    1.31088426935978,.393290655660428
371    .193229166666664E-03,0
    1.33886348591136,.319426399850254
372    .193749999999998E-03,0
    1.24704744115212,.210931757849091
373    .194270833333331E-03,0
    1.04777348437882,.673174165077619E-01
374    .194791666666665E-03,0
    .764344602245472,-.107033071035946
375    .195312499999998E-03,0
    .428305184586456,-.302713033247721
376    .195833333333331E-03,0
    .759079995927559E-01,-.505814767455322
377    .196354166666664E-03,0
    -.255832091374013,-.699464637964911
378    .196874999999998E-03,0
    -.533069751341995,-.865541481745294
379    .197395833333331E-03,0
    -.728473222669581,-.986914485587808
380    .197916666666664E-03,0
    -.823846695518492,-1.0497270229941
381    .198437499999998E-03,0
    -.81167510635881,-1.04537558316105
382    .198958333333331E-03,0
    -.695505993937095,-.971908521472535
383    .199479166666664E-03,0
    -.489187662612852,-.834624355201624
384    .199999999999998E-03,0
    -.21510106064119,-.645758958335703
385    .200520833333331E-03,0
    .983821326908037E-01,-.4232798066639
386    .201041666666664E-03,0
    .419908773858291,-.189008846283477
387    .201562499999998E-03,0
    .718349986581099,.340881129837869E-01
388    .202083333333331E-03,0
    .965760086067284,.22418518418273
389    .202604166666664E-03,0
    1.13994874898327,.36319567874049
390    .203124999999998E-03,0
    1.22635331804547,.438674950937463
391    .203645833333331E-03,0
    1.21909837524241,.445015178507135
392    .204166666666664E-03,0
    1.12118180788194,.38376794630963
393    .204687499999998E-03,0
    .943816620106679,.263087281367278
394    .205208333333331E-03,0
    .705035171485631,.964080976004834E-01
395    .205729166666664E-03,0
    .427724972609079,-.994246616594591E-01
396    .206249999999998E-03,0
    .137317869692385,-.30622188108563
397    .206770833333331E-03,0
    -.140703710553146,-.506776696201972
398    .207291666666664E-03,0
    -.383055862423755,-.686519677710079
399    .207812499999998E-03,0
    -.570747525554982,-.834810151990561
400    .208333333333331E-03,0
    -.690605487182558,-.945635654417881
401    .208854166666664E-03,0
    -.736224040486667,-1.01764414071633
402    .209374999999998E-03,0
    -.708266212499396,-1.05360914576305
403    .209895833333331E-03,0
    -.614122938810707,-1.0594744039184
404    .210416666666664E-03,0
    -.466991797921904,-1.04316490795559
405    .210937499999998E-03,0
    -.284482402471491,-1.01335762960051
406    .211458333333331E-03,0
    -.868689934813913E-01,-.978404886425108
407    .211979166666664E-03,0
    .104724325818171,-.945397791370345
408    .212499999999998E-03,0
    .270396100652697,-.919708553149836
409    .213020833333331E-03,0
    .393129375314169,-.904713939416634
410    .213541666666664E-03,0
    .460325819525005,-.901816801024206
411    .214062499999998E-03,0
    .464923827772251,-.910643958487775
412    .214583333333331E-03,0
    .406051153333563,-.929340442102426
413    .215104166666664E-03,0
    .28916324522335,-.954889045948776
414    .215624999999998E-03,0
    .125651253714071,-.983410863785235
415    .216145833333331E-03,0
    -.680629573323766E-01,-1.01043412002792
416    .216666666666664E-03,0
    -.271897683359897,-1.03117723436375
417    .217187499999998E-03,0
    -.463864921684598,-1.04073430260443
418    .217708333333331E-03,0
    -.622007503223102,-1.03442371587422
419    .218229166666664E-03,0
    -.726582921666095,-1.00819213424871
420    .218749999999998E-03,0
    -.762079291999454,-.95901676183417
421    .219270833333331E-03,0
    -.718997364778087,-.885333251420492
422    .219791666666664E-03,0
    -.595182890066773,-.787402363640445
423    .220312499999998E-03,0
    -.396537433415076,-.667534823841511
424    .220833333333331E-03,0
    -.136976377025708,-.530099356158521
425    .221354166666664E-03,0
    .162434796970787,-.38126416972397
426    .221874999999998E-03,0
    .47510801456805,-.228403881927601
427    .222395833333331E-03,0
    .771501135826457,-.795811252240278E-01
428    .222916666666664E-03,0
    1.02172349614121,.577260837416629E-01