File Format: MDS
; @(#) $Source: /cvs/sr/src/gemini/lib_netlist/slib-sml/source/PHS_bb.dat,v $ $Revision: 1.1 $ $Date: 1997/12/17 12:01:53 $
Title: Equation data
Date: Tuesday, 4 June 1996 21:36:27 GMT
Plotname: XX x[0]
Flags: real
No. Sweep Variables: 0
Sweep Variables:
No. Variables: 2
Variables:         0  IVAR  unknown type=real indep=yes
        1  _NMDEQN  unknown type=real indep=no
Values:
0    0
    -1
1    .5208333333323E-06
    -1
2    .104166666666563E-05
    -1
3    .156249999999896E-05
    -1
4    .208333333333229E-05
    -1
5    .260416666666562E-05
    -1
6    .312499999999895E-05
    -1
7    .364583333333228E-05
    -1
8    .416666666666561E-05
    -1
9    .468749999999894E-05
    -1
10    .520833333333227E-05
    -1
11    .57291666666656E-05
    -1
12    .624999999999893E-05
    -1
13    .677083333333226E-05
    -1
14    .729166666666559E-05
    -1
15    .781249999999892E-05
    -1
16    .833333333333225E-05
    -1
17    .885416666666558E-05
    -1
18    .937499999999891E-05
    -1
19    .989583333333224E-05
    -1
20    .104166666666656E-04
    -1
21    .109374999999989E-04
    -1
22    .114583333333322E-04
    -1
23    .119791666666656E-04
    -1
24    .124999999999989E-04
    -1
25    .130208333333322E-04
    -1
26    .135416666666656E-04
    -1
27    .140624999999989E-04
    -1
28    .145833333333322E-04
    -1
29    .151041666666656E-04
    -1
30    .156249999999989E-04
    -1
31    .161458333333322E-04
    -1
32    .166666666666655E-04
    -1
33    .171874999999989E-04
    -1
34    .177083333333322E-04
    -1
35    .182291666666655E-04
    -1
36    .187499999999989E-04
    -1
37    .192708333333322E-04
    -1
38    .197916666666655E-04
    -1
39    .203124999999989E-04
    -1
40    .208333333333322E-04
    -1
41    .213541666666655E-04
    -1
42    .218749999999988E-04
    -1
43    .223958333333322E-04
    -1
44    .229166666666655E-04
    -1
45    .234374999999988E-04
    -1
46    .239583333333322E-04
    -1
47    .244791666666655E-04
    -1
48    .249999999999988E-04
    -1
49    .255208333333321E-04
    -1
50    .260416666666655E-04
    -1
51    .265624999999988E-04
    -1
52    .270833333333321E-04
    -1
53    .276041666666655E-04
    -1
54    .281249999999988E-04
    -1
55    .286458333333321E-04
    -1
56    .291666666666655E-04
    -1
57    .296874999999988E-04
    -1
58    .302083333333321E-04
    -1
59    .307291666666655E-04
    -1
60    .312499999999988E-04
    -1
61    .317708333333321E-04
    -1
62    .322916666666654E-04
    -1
63    .328124999999988E-04
    -1
64    .333333333333321E-04
    -1
65    .338541666666654E-04
    -1
66    .343749999999988E-04
    -1
67    .348958333333321E-04
    -1
68    .354166666666654E-04
    -1
69    .359374999999987E-04
    -1
70    .364583333333321E-04
    -1
71    .369791666666654E-04
    -1
72    .374999999999987E-04
    -1
73    .380208333333321E-04
    -1
74    .385416666666654E-04
    -1
75    .390624999999987E-04
    -1
76    .395833333333321E-04
    -1
77    .401041666666654E-04
    -1
78    .406249999999987E-04
    -1
79    .41145833333332E-04
    -1
80    .416666666666654E-04
    -1
81    .421874999999987E-04
    -1
82    .42708333333332E-04
    -1
83    .432291666666654E-04
    -1
84    .437499999999987E-04
    -1
85    .44270833333332E-04
    -1
86    .447916666666654E-04
    -1
87    .453124999999987E-04
    -1
88    .45833333333332E-04
    -1
89    .463541666666654E-04
    -1
90    .468749999999987E-04
    -1
91    .47395833333332E-04
    -1
92    .479166666666653E-04
    -1
93    .484374999999987E-04
    -1
94    .48958333333332E-04
    -1
95    .494791666666653E-04
    -1
96    .499999999999987E-04
    -1
97    .50520833333332E-04
    -1
98    .510416666666653E-04
    -1
99    .515624999999987E-04
    -1
100    .52083333333332E-04
    -1
101    .526041666666653E-04
    -1
102    .531249999999986E-04
    -1
103    .53645833333332E-04
    -1
104    .541666666666653E-04
    -1
105    .546874999999986E-04
    -1
106    .55208333333332E-04
    -1
107    .557291666666653E-04
    -1
108    .562499999999986E-04
    -1
109    .56770833333332E-04
    -1
110    .572916666666653E-04
    -1
111    .578124999999986E-04
    -1
112    .58333333333332E-04
    -1
113    .588541666666653E-04
    -1
114    .593749999999986E-04
    -1
115    .598958333333319E-04
    -1
116    .604166666666653E-04
    -1
117    .609374999999986E-04
    -1
118    .614583333333319E-04
    -1
119    .619791666666653E-04
    -1
120    .624999999999986E-04
    -1
121    .630208333333319E-04
    -1
122    .635416666666653E-04
    -1
123    .640624999999986E-04
    -1
124    .645833333333319E-04
    -1
125    .651041666666652E-04
    -1
126    .656249999999986E-04
    -1
127    .661458333333319E-04
    -1
128    .666666666666652E-04
    -1
129    .671874999999986E-04
    -1
130    .677083333333319E-04
    -1
131    .682291666666652E-04
    -1
132    .687499999999986E-04
    -1
133    .692708333333319E-04
    -1
134    .697916666666652E-04
    -1
135    .703124999999985E-04
    -1
136    .708333333333319E-04
    -1
137    .713541666666652E-04
    -1
138    .718749999999985E-04
    -1
139    .723958333333319E-04
    -1
140    .729166666666652E-04
    -1
141    .734374999999985E-04
    -1
142    .739583333333319E-04
    -1
143    .744791666666652E-04
    -1
144    .749999999999985E-04
    -1
145    .755208333333319E-04
    -1
146    .760416666666652E-04
    -1
147    .765624999999985E-04
    -1
148    .770833333333318E-04
    -1
149    .776041666666652E-04
    -1
150    .781249999999985E-04
    -1
151    .786458333333318E-04
    -1
152    .791666666666652E-04
    -1
153    .796874999999985E-04
    -1
154    .802083333333318E-04
    -1
155    .807291666666652E-04
    -1
156    .812499999999985E-04
    -1
157    .817708333333318E-04
    -1
158    .822916666666651E-04
    -1
159    .828124999999985E-04
    -1
160    .833333333333318E-04
    -1
161    .838541666666651E-04
    -1
162    .843749999999985E-04
    -1
163    .848958333333318E-04
    -1
164    .854166666666651E-04
    -1
165    .859374999999985E-04
    -1
166    .864583333333318E-04
    -1
167    .869791666666651E-04
    -1
168    .874999999999985E-04
    -1
169    .880208333333318E-04
    -1
170    .885416666666651E-04
    -1
171    .890624999999984E-04
    -1
172    .895833333333318E-04
    -1
173    .901041666666651E-04
    -1
174    .906249999999984E-04
    -1
175    .911458333333317E-04
    -1
176    .916666666666651E-04
    -1
177    .921874999999984E-04
    -1
178    .927083333333317E-04
    -1
179    .932291666666651E-04
    -1
180    .937499999999984E-04
    -1
181    .942708333333317E-04
    -1
182    .947916666666651E-04
    -1
183    .953124999999984E-04
    -1
184    .958333333333317E-04
    -1
185    .96354166666665E-04
    -1
186    .968749999999984E-04
    -1
187    .973958333333317E-04
    -1
188    .97916666666665E-04
    -1
189    .984374999999984E-04
    -1
190    .989583333333317E-04
    -1
191    .99479166666665E-04
    -1
192    .999999999999984E-04
    -1
193    .100520833333332E-03
    -1
194    .101041666666665E-03
    -1
195    .101562499999998E-03
    -1
196    .102083333333332E-03
    -1
197    .102604166666665E-03
    -1
198    .103124999999998E-03
    -1
199    .103645833333332E-03
    -1
200    .104166666666665E-03
    -1
201    .104687499999998E-03
    -1
202    .105208333333332E-03
    -1
203    .105729166666665E-03
    -1
204    .106249999999998E-03
    -1
205    .106770833333332E-03
    -1
206    .107291666666665E-03
    -1
207    .107812499999998E-03
    -1
208    .108333333333332E-03
    -1
209    .108854166666665E-03
    -1
210    .109374999999998E-03
    -1
211    .109895833333332E-03
    -1
212    .110416666666665E-03
    -1
213    .110937499999998E-03
    -1
214    .111458333333332E-03
    -1
215    .111979166666665E-03
    -1
216    .112499999999998E-03
    -1
217    .113020833333332E-03
    -1
218    .113541666666665E-03
    -1
219    .114062499999998E-03
    -1
220    .114583333333332E-03
    -1
221    .115104166666665E-03
    -1
222    .115624999999998E-03
    -1
223    .116145833333332E-03
    -1
224    .116666666666665E-03
    -.999999999999943
225    .117187499999998E-03
    1
226    .117708333333332E-03
    1
227    .118229166666665E-03
    1
228    .118749999999998E-03
    1
229    .119270833333332E-03
    1
230    .119791666666665E-03
    1
231    .120312499999998E-03
    1
232    .120833333333332E-03
    1
233    .121354166666665E-03
    1
234    .121874999999998E-03
    1
235    .122395833333332E-03
    1
236    .122916666666665E-03
    1
237    .123437499999998E-03
    1
238    .123958333333332E-03
    1
239    .124479166666665E-03
    1
240    .124999999999998E-03
    1
241    .125520833333331E-03
    1
242    .126041666666665E-03
    1
243    .126562499999998E-03
    1
244    .127083333333331E-03
    .999999999999943
245    .127604166666665E-03
    -1
246    .128124999999998E-03
    -1
247    .128645833333331E-03
    -1
248    .129166666666665E-03
    -1
249    .129687499999998E-03
    -.999999999999943
250    .130208333333331E-03
    1
251    .130729166666665E-03
    1
252    .131249999999998E-03
    1
253    .131770833333332E-03
    1
254    .132291666666665E-03
    .999999999999943
255    .132812499999998E-03
    -1
256    .133333333333331E-03
    -1
257    .133854166666665E-03
    -1
258    .134374999999998E-03
    -1
259    .134895833333331E-03
    -1
260    .135416666666665E-03
    -1
261    .135937499999998E-03
    -1
262    .136458333333332E-03
    -1
263    .136979166666665E-03
    -1
264    .137499999999998E-03
    -1
265    .138020833333331E-03
    -1
266    .138541666666665E-03
    -1
267    .139062499999998E-03
    -1
268    .139583333333332E-03
    -1
269    .140104166666665E-03
    -1
270    .140624999999998E-03
    -1
271    .141145833333331E-03
    -1
272    .141666666666665E-03
    -1
273    .142187499999998E-03
    -1
274    .142708333333331E-03
    -.999999999999943
275    .143229166666665E-03
    1
276    .143749999999998E-03
    1
277    .144270833333331E-03
    1
278    .144791666666665E-03
    1
279    .145312499999998E-03
    1
280    .145833333333331E-03
    1
281    .146354166666665E-03
    1
282    .146874999999998E-03
    1
283    .147395833333331E-03
    1
284    .147916666666665E-03
    1
285    .148437499999998E-03
    1
286    .148958333333331E-03
    1
287    .149479166666665E-03
    1
288    .149999999999998E-03
    1
289    .150520833333331E-03
    .999999999999943
290    .151041666666665E-03
    -1
291    .151562499999998E-03
    -1
292    .152083333333331E-03
    -1
293    .152604166666665E-03
    -1
294    .153124999999998E-03
    -.999999999999943
295    .153645833333331E-03
    1
296    .154166666666665E-03
    1
297    .154687499999998E-03
    1
298    .155208333333331E-03
    1
299    .155729166666665E-03
    .999999999999943
300    .156249999999998E-03
    -1
301    .156770833333331E-03
    -1
302    .157291666666665E-03
    -1
303    .157812499999998E-03
    -1
304    .158333333333331E-03
    -1
305    .158854166666665E-03
    -1
306    .159374999999998E-03
    -1
307    .159895833333331E-03
    -1
308    .160416666666665E-03
    -1
309    .160937499999998E-03
    -1
310    .161458333333331E-03
    -1
311    .161979166666665E-03
    -1
312    .162499999999998E-03
    -1
313    .163020833333331E-03
    -1
314    .163541666666665E-03
    -.999999999999943
315    .164062499999998E-03
    1
316    .164583333333331E-03
    1
317    .165104166666665E-03
    1
318    .165624999999998E-03
    1
319    .166145833333331E-03
    .999999999999943
320    .166666666666665E-03
    -1
321    .167187499999998E-03
    -1
322    .167708333333331E-03
    -1
323    .168229166666665E-03
    -1
324    .168749999999998E-03
    -.999999999999943
325    .169270833333331E-03
    1
326    .169791666666665E-03
    1
327    .170312499999998E-03
    1
328    .170833333333331E-03
    1
329    .171354166666665E-03
    1
330    .171874999999998E-03
    1
331    .172395833333331E-03
    1
332    .172916666666665E-03
    1
333    .173437499999998E-03
    1
334    .173958333333331E-03
    1
335    .174479166666665E-03
    1
336    .174999999999998E-03
    1
337    .175520833333331E-03
    1
338    .176041666666665E-03
    1
339    .176562499999998E-03
    1
340    .177083333333331E-03
    1
341    .177604166666665E-03
    1
342    .178124999999998E-03
    1
343    .178645833333331E-03
    1
344    .179166666666665E-03
    .999999999999943
345    .179687499999998E-03
    -1
346    .180208333333331E-03
    -1
347    .180729166666664E-03
    -1
348    .181249999999998E-03
    -1
349    .181770833333331E-03
    -1
350    .182291666666665E-03
    -1
351    .182812499999998E-03
    -1
352    .183333333333331E-03
    -1
353    .183854166666664E-03
    -1
354    .184374999999998E-03
    -.999999999999943
355    .184895833333331E-03
    1
356    .185416666666664E-03
    1
357    .185937499999998E-03
    1
358    .186458333333331E-03
    1
359    .186979166666665E-03
    1
360    .187499999999998E-03
    1
361    .188020833333331E-03
    1
362    .188541666666664E-03
    1
363    .189062499999998E-03
    1
364    .189583333333331E-03
    1
365    .190104166666665E-03
    1
366    .190624999999998E-03
    1
367    .191145833333331E-03
    1
368    .191666666666665E-03
    1
369    .192187499999998E-03
    1
370    .192708333333331E-03
    1
371    .193229166666664E-03
    1
372    .193749999999998E-03
    1
373    .194270833333331E-03
    1
374    .194791666666665E-03
    1
375    .195312499999998E-03
    1
376    .195833333333331E-03
    1
377    .196354166666664E-03
    1
378    .196874999999998E-03
    1
379    .197395833333331E-03
    .999999999999943
380    .197916666666664E-03
    -1
381    .198437499999998E-03
    -1
382    .198958333333331E-03
    -1
383    .199479166666664E-03
    -1
384    .199999999999998E-03
    -.999999999999943
385    .200520833333331E-03
    1
386    .201041666666664E-03
    1
387    .201562499999998E-03
    1
388    .202083333333331E-03
    1
389    .202604166666664E-03
    1
390    .203124999999998E-03
    1
391    .203645833333331E-03
    1
392    .204166666666664E-03
    1
393    .204687499999998E-03
    1
394    .205208333333331E-03
    1
395    .205729166666664E-03
    1
396    .206249999999998E-03
    1
397    .206770833333331E-03
    1
398    .207291666666664E-03
    1
399    .207812499999998E-03
    .999999999999943
400    .208333333333331E-03
    -1
401    .208854166666664E-03
    -1
402    .209374999999998E-03
    -1
403    .209895833333331E-03
    -1
404    .210416666666664E-03
    -1
405    .210937499999998E-03
    -1
406    .211458333333331E-03
    -1
407    .211979166666664E-03
    -1
408    .212499999999998E-03
    -1
409    .213020833333331E-03
    -.999999999999943
410    .213541666666664E-03
    1
411    .214062499999998E-03
    1
412    .214583333333331E-03
    1
413    .215104166666664E-03
    1
414    .215624999999998E-03
    .999999999999943
415    .216145833333331E-03
    -1
416    .216666666666664E-03
    -1
417    .217187499999998E-03
    -1
418    .217708333333331E-03
    -1
419    .218229166666664E-03
    -1
420    .218749999999998E-03
    -1
421    .219270833333331E-03
    -1
422    .219791666666664E-03
    -1
423    .220312499999998E-03
    -1
424    .220833333333331E-03
    -.999999999999943
425    .221354166666664E-03
    1
426    .221874999999998E-03
    1
427    .222395833333331E-03
    1
428    .222916666666664E-03
    1
429    .223437499999998E-03
    .999999999999943
430    .223958333333331E-03
    -1
431    .224479166666664E-03
    -1
432    .224999999999998E-03
    -1
433    .225520833333331E-03
    -1
434    .226041666666664E-03
    -.999999999999943
435    .226562499999998E-03
    1
436    .227083333333331E-03
    1
437    .227604166666664E-03
    1
438    .228124999999998E-03
    1
439    .228645833333331E-03
    1
440    .229166666666664E-03
    1
441    .229687499999998E-03
    1
442    .230208333333331E-03
    1
443    .230729166666664E-03
    1
444    .231249999999998E-03
    1
445    .231770833333331E-03
    1
446    .232291666666664E-03
    1
447    .232812499999998E-03
    1
448    .233333333333331E-03
    1
449    .233854166666664E-03
    .999999999999943
450    .234374999999998E-03
    -1
451    .234895833333331E-03
    -1
452    .235416666666664E-03
    -1
453    .235937499999998E-03
    -1
454    .236458333333331E-03
    -1
455    .236979166666664E-03
    -1
456    .237499999999998E-03
    -1
457    .238020833333331E-03
    -1
458    .238541666666664E-03
    -1
459    .239062499999997E-03
    -.999999999999943
460    .239583333333331E-03
    1
461    .240104166666664E-03
    1
462    .240624999999997E-03
    1
463    .241145833333331E-03
    1
464    .241666666666664E-03
    1
465    .242187499999998E-03
    1
466    .242708333333331E-03
    1
467    .243229166666664E-03
    1
468    .243749999999998E-03
    1
469    .244270833333331E-03
    .999999999999943
470    .244791666666664E-03
    -1
471    .245312499999998E-03
    -1
472    .245833333333331E-03
    -1
473    .246354166666664E-03
    -1
474    .246874999999997E-03
    -1
475    .247395833333331E-03
    -1
476    .247916666666664E-03
    -1
477    .248437499999998E-03
    -1
478    .248958333333331E-03
    -1
479    .249479166666664E-03
    -.999999999999943
480    .249999999999998E-03
    1
481    .250520833333331E-03
    1
482    .251041666666664E-03
    1
483    .251562499999997E-03
    1
484    .252083333333331E-03
    1
485    .252604166666664E-03
    1
486    .253124999999997E-03
    1
487    .253645833333331E-03
    1
488    .254166666666664E-03
    1
489    .254687499999997E-03
    1
490    .255208333333331E-03
    1
491    .255729166666664E-03
    1
492    .256249999999997E-03
    1
493    .256770833333331E-03
    1
494    .257291666666664E-03
    .999999999999943
495    .257812499999997E-03
    -1
496    .258333333333331E-03
    -1
497    .258854166666664E-03
    -1
498    .259374999999997E-03
    -1
499    .259895833333331E-03
    -1
500    .260416666666664E-03
    -1
501    .260937499999997E-03
    -1
502    .261458333333331E-03
    -1
503    .261979166666664E-03
    -1
504    .262499999999997E-03
    -1
505    .263020833333331E-03
    -1
506    .263541666666664E-03
    -1
507    .264062499999997E-03
    -1
508    .264583333333331E-03
    -1
509    .265104166666664E-03
    -1
510    .265624999999997E-03
    -1
511    .266145833333331E-03
    -1
512    .266666666666664E-03
    -1
513    .267187499999997E-03
    -1
514    .267708333333331E-03
    -.999999999999943
515    .268229166666664E-03
    1
516    .268749999999997E-03
    1
517    .269270833333331E-03
    1
518    .269791666666664E-03
    1
519    .270312499999997E-03
    .999999999999943
520    .270833333333331E-03
    -1
521    .271354166666664E-03
    -1
522    .271874999999997E-03
    -1
523    .272395833333331E-03
    -1
524    .272916666666664E-03
    -.999999999999943
525    .273437499999997E-03
    1
526    .273958333333331E-03
    1
527    .274479166666664E-03
    1
528    .274999999999997E-03
    1
529    .275520833333331E-03
    .999999999999943
530    .276041666666664E-03
    -1
531    .276562499999997E-03
    -1
532    .277083333333331E-03
    -1
533    .277604166666664E-03
    -1
534    .278124999999997E-03
    -.999999999999943
535    .278645833333331E-03
    1
536    .279166666666664E-03
    1
537    .279687499999997E-03
    1
538    .280208333333331E-03
    1
539    .280729166666664E-03
    .999999999999943
540    .281249999999997E-03
    -1
541    .281770833333331E-03
    -1
542    .282291666666664E-03
    -1
543    .282812499999997E-03
    -1
544    .283333333333331E-03
    -1
545    .283854166666664E-03
    -1
546    .284374999999998E-03
    -1
547    .284895833333331E-03
    -1
548    .285416666666664E-03
    -1
549    .285937499999998E-03
    -1
550    .286458333333331E-03
    -1
551    .286979166666665E-03
    -1
552    .287499999999998E-03
    -1
553    .288020833333331E-03
    -1
554    .288541666666665E-03
    -.999999999999943
555    .289062499999998E-03
    1
556    .289583333333332E-03
    1
557    .290104166666665E-03
    1
558    .290624999999998E-03
    1
559    .291145833333332E-03
    .999999999999943
560    .291666666666665E-03
    -1
561    .292187499999998E-03
    -1
562    .292708333333332E-03
    -1
563    .293229166666665E-03
    -1
564    .293749999999999E-03
    -1
565    .294270833333332E-03
    -1
566    .294791666666665E-03
    -1
567    .295312499999999E-03
    -1
568    .295833333333332E-03
    -1
569    .296354166666666E-03
    -1
570    .296874999999999E-03
    -1
571    .297395833333332E-03
    -1
572    .297916666666666E-03
    -1
573    .298437499999999E-03
    -1
574    .298958333333332E-03
    -.999999999999943
575    .299479166666666E-03
    1
576    .299999999999999E-03
    1
577    .300520833333333E-03
    1
578    .301041666666666E-03
    1
579    .301562499999999E-03
    1
580    .302083333333333E-03
    1
581    .302604166666666E-03
    1
582    .303125E-03
    1
583    .303645833333333E-03
    1
584    .304166666666666E-03
    1
585    .3046875E-03
    1
586    .305208333333333E-03
    1
587    .305729166666666E-03
    1
588    .30625E-03
    1
589    .306770833333333E-03
    .999999999999943
590    .307291666666667E-03
    -1
591    .3078125E-03
    -1
592    .308333333333333E-03
    -1
593    .308854166666667E-03
    -1
594    .309375E-03
    -.999999999999943
595    .309895833333334E-03
    1
596    .310416666666667E-03
    1
597    .3109375E-03
    1
598    .311458333333334E-03
    1
599    .311979166666667E-03
    1
600    .3125E-03
    1
601    .313020833333334E-03
    1
602    .313541666666667E-03
    1
603    .314062500000001E-03
    1
604    .314583333333334E-03
    .999999999999943
605    .315104166666667E-03
    -1
606    .315625000000001E-03
    -1
607    .316145833333334E-03
    -1
608    .316666666666668E-03
    -1
609    .317187500000001E-03
    -.999999999999943
610    .317708333333334E-03
    1
611    .318229166666668E-03
    1
612    .318750000000001E-03
    1
613    .319270833333334E-03
    1
614    .319791666666668E-03
    .999999999999943
615    .320312500000001E-03
    -1
616    .320833333333335E-03
    -1
617    .321354166666668E-03
    -1
618    .321875000000001E-03
    -1
619    .322395833333335E-03
    -1
620    .322916666666668E-03
    -1
621    .323437500000001E-03
    -1
622    .323958333333335E-03
    -1
623    .324479166666668E-03
    -1
624    .325000000000002E-03
    -.999999999999943
625    .325520833333335E-03
    1
626    .326041666666668E-03
    1
627    .326562500000002E-03
    1
628    .327083333333335E-03
    1
629    .327604166666669E-03
    .999999999999943
630    .328125000000002E-03
    -1
631    .328645833333335E-03
    -1
632    .329166666666669E-03
    -1
633    .329687500000002E-03
    -1
634    .330208333333335E-03
    -.999999999999943
635    .330729166666669E-03
    1
636    .331250000000002E-03
    1
637    .331770833333336E-03
    1
638    .332291666666669E-03
    1
639    .332812500000002E-03
    1
640    .333333333333336E-03
    1
641    .333854166666669E-03
    1
642    .334375000000003E-03
    1
643    .334895833333336E-03
    1
644    .335416666666669E-03
    1
645    .335937500000003E-03
    1
646    .336458333333336E-03
    1
647    .336979166666669E-03
    1
648    .337500000000003E-03
    1
649    .338020833333336E-03
    .999999999999943
650    .33854166666667E-03
    -1
651    .339062500000003E-03
    -1
652    .339583333333336E-03
    -1
653    .34010416666667E-03
    -1
654    .340625000000003E-03
    -.999999999999943
655    .341145833333337E-03
    1
656    .34166666666667E-03
    1
657    .342187500000003E-03
    1
658    .342708333333337E-03
    1
659    .34322916666667E-03
    .999999999999943
660    .343750000000004E-03
    -1
661    .344270833333337E-03
    -1
662    .34479166666667E-03
    -1
663    .345312500000004E-03
    -1
664    .345833333333337E-03
    -1
665    .34635416666667E-03
    -1
666    .346875000000004E-03
    -1
667    .347395833333337E-03
    -1
668    .347916666666671E-03
    -1
669    .348437500000004E-03
    -.999999999999943
670    .348958333333337E-03
    1
671    .349479166666671E-03
    1
672    .350000000000004E-03
    1
673    .350520833333338E-03
    1
674    .351041666666671E-03
    .999999999999943
675    .351562500000004E-03
    -1
676    .352083333333338E-03
    -1
677    .352604166666671E-03
    -1
678    .353125000000004E-03
    -1
679    .353645833333338E-03
    -1
680    .354166666666671E-03
    -1
681    .354687500000005E-03
    -1
682    .355208333333338E-03
    -1
683    .355729166666671E-03
    -1
684    .356250000000005E-03
    -.999999999999943
685    .356770833333338E-03
    1
686    .357291666666671E-03
    1
687    .357812500000005E-03
    1
688    .358333333333338E-03
    1
689    .358854166666672E-03
    .999999999999943
690    .359375000000005E-03
    -1
691    .359895833333338E-03
    -1
692    .360416666666672E-03
    -1
693    .360937500000005E-03
    -1
694    .361458333333339E-03
    -.999999999999943
695    .361979166666672E-03
    1
696    .362500000000005E-03
    1
697    .363020833333339E-03
    1
698    .363541666666672E-03
    1
699    .364062500000006E-03
    1
700    .364583333333339E-03
    1
701    .365104166666672E-03
    1
702    .365625000000006E-03
    1
703    .366145833333339E-03
    1
704    .366666666666672E-03
    .999999999999943
705    .367187500000006E-03
    -1
706    .367708333333339E-03
    -1
707    .368229166666673E-03
    -1
708    .368750000000006E-03
    -1
709    .369270833333339E-03
    -.999999999999943
710    .369791666666673E-03
    1
711    .370312500000006E-03
    1
712    .37083333333334E-03
    1
713    .371354166666673E-03
    1
714    .371875000000006E-03
    1
715    .37239583333334E-03
    1
716    .372916666666673E-03
    1
717    .373437500000006E-03
    1
718    .37395833333334E-03
    1
719    .374479166666673E-03
    .999999999999943
720    .375000000000007E-03
    -1
721    .37552083333334E-03
    -1
722    .376041666666673E-03
    -1
723    .376562500000007E-03
    -1
724    .37708333333334E-03
    -.999999999999943
725    .377604166666673E-03
    1
726    .378125000000007E-03
    1
727    .37864583333334E-03
    1
728    .379166666666674E-03
    1
729    .379687500000007E-03
    1
730    .38020833333334E-03
    1
731    .380729166666674E-03
    1
732    .381250000000007E-03
    1
733    .381770833333341E-03
    1
734    .382291666666674E-03
    .999999999999943
735    .382812500000007E-03
    -1
736    .383333333333341E-03
    -1
737    .383854166666674E-03
    -1
738    .384375000000007E-03
    -1
739    .384895833333341E-03
    -1
740    .385416666666674E-03
    -1
741    .385937500000008E-03
    -1
742    .386458333333341E-03
    -1
743    .386979166666674E-03
    -1
744    .387500000000008E-03
    -1
745    .388020833333341E-03
    -1
746    .388541666666675E-03
    -1
747    .389062500000008E-03
    -1
748    .389583333333341E-03
    -1
749    .390104166666675E-03
    -1
750    .390625000000008E-03
    -1
751    .391145833333341E-03
    -1
752    .391666666666675E-03
    -1
753    .392187500000008E-03
    -1
754    .392708333333342E-03
    -1
755    .393229166666675E-03
    -1
756    .393750000000008E-03
    -1
757    .394270833333342E-03
    -1
758    .394791666666675E-03
    -1
759    .395312500000009E-03
    -.999999999999943
760    .395833333333342E-03
    1
761    .396354166666675E-03
    1
762    .396875000000009E-03
    1
763    .397395833333342E-03
    1
764    .397916666666675E-03
    .999999999999943
765    .398437500000009E-03
    -1
766    .398958333333342E-03
    -1
767    .399479166666676E-03
    -1
768    .400000000000009E-03
    -1
769    .400520833333342E-03
    -1
770    .401041666666676E-03
    -1
771    .401562500000009E-03
    -1
772    .402083333333343E-03
    -1
773    .402604166666676E-03
    -1
774    .403125000000009E-03
    -.999999999999943
775    .403645833333343E-03
    1
776    .404166666666676E-03
    1
777    .404687500000009E-03
    1
778    .405208333333343E-03
    1
779    .405729166666676E-03
    1
780    .40625000000001E-03
    1
781    .406770833333343E-03
    1
782    .407291666666676E-03
    1
783    .40781250000001E-03
    1
784    .408333333333343E-03
    .999999999999943
785    .408854166666677E-03
    -1
786    .40937500000001E-03
    -1
787    .409895833333343E-03
    -1
788    .410416666666677E-03
    -1
789    .41093750000001E-03
    -1
790    .411458333333343E-03
    -1
791    .411979166666677E-03
    -1
792    .41250000000001E-03
    -1
793    .413020833333344E-03
    -1
794    .413541666666677E-03
    -.999999999999943
795    .41406250000001E-03
    1
796    .414583333333344E-03
    1
797    .415104166666677E-03
    1
798    .415625000000011E-03
    1
799    .416145833333344E-03
    .999999999999943
800    .416666666666677E-03
    -1
801    .417187500000011E-03
    -1
802    .417708333333344E-03
    -1
803    .418229166666678E-03
    -1
804    .418750000000011E-03
    -.999999999999943
805    .419270833333344E-03
    1
806    .419791666666678E-03
    1
807    .420312500000011E-03
    1
808    .420833333333344E-03
    1
809    .421354166666678E-03
    1
810    .421875000000011E-03
    1
811    .422395833333345E-03
    1
812    .422916666666678E-03
    1
813    .423437500000011E-03
    1
814    .423958333333345E-03
    1
815    .424479166666678E-03
    1
816    .425000000000012E-03
    1
817    .425520833333345E-03
    1
818    .426041666666678E-03
    1
819    .426562500000012E-03
    .999999999999943
820    .427083333333345E-03
    -1
821    .427604166666678E-03
    -1
822    .428125000000012E-03
    -1
823    .428645833333345E-03
    -1
824    .429166666666678E-03
    -1
825    .429687500000012E-03
    -1
826    .430208333333345E-03
    -1
827    .430729166666679E-03
    -1
828    .431250000000012E-03
    -1
829    .431770833333346E-03
    -1
830    .432291666666679E-03
    -1
831    .432812500000012E-03
    -1
832    .433333333333346E-03
    -1